
  ___ ___ ___ _ _ _  
 |   |   |_  | | | | 
 | | | | | . | | | | 
 |__ |  _|___|_____|  22.8.0
 |___|_|             

User:   austin@austinhoustonmacm1.nomads.utk.edu
Date:   Thu May  4 18:51:28 2023
Arch:   arm64
Pid:    25491
CWD:    /Users/austin/Desktop/dft_class/final_project
Python: 3.8.16
gpaw:   /Users/austin/tensorflow_env/env/lib/python3.8/site-packages/gpaw
_gpaw:  /Users/austin/tensorflow_env/env/lib/python3.8/site-packages/
        _gpaw.cpython-38-darwin.so
ase:    /Users/austin/tensorflow_env/env/lib/python3.8/site-packages/ase (version 3.22.1)
numpy:  /Users/austin/tensorflow_env/env/lib/python3.8/site-packages/numpy (version 1.23.2)
scipy:  /Users/austin/tensorflow_env/env/lib/python3.8/site-packages/scipy (version 1.9.1)
libxc:  6.1.0
units:  Angstrom and eV
cores: 1
OpenMP: False
OMP_NUM_THREADS: 1

Input parameters:
  kpts: [4 4 4]
  mode: {ecut: 300.0,
         name: pw}

System changes: positions, numbers, cell, pbc, initial_charges, initial_magmoms 

Initialize ...

species:
  C:
    name: Carbon
    id: d60576a1f549371a163e72552ca58787
    Z: 6.0
    valence: 4
    core: 2
    charge: 0.0
    file: /Users/austin/gpaw-setups-0.9.20000/C.LDA.gz
    compensation charges: {type: gauss,
                           rc: 0.20,
                           lmax: 2}
    cutoffs: {filter: 1.14,
              core: 1.14}
    valence states:
      #              energy  rcut
      - 2s(2.00)   -13.639   0.635
      - 2p(2.00)    -5.414   0.635
      -  s          13.573   0.635
      -  p          21.797   0.635
      -  d           0.000   0.635
  
    # Using partial waves for C as LCAO basis

Reference energy: -2037.605076  # eV

Spin-paired calculation

Convergence criteria:
 Maximum [total energy] change in last 3 cyles: 0.0005 eV / electron
 Maximum integral of absolute [dens]ity change: 0.0001 electrons / valence electron
 Maximum integral of absolute [eigenst]ate change: 4e-08 eV^2 / valence electron
 Maximum number of scf [iter]ations: 333
 (Square brackets indicate name in SCF output, whereas a 'c' in
 the SCF output indicates the quantity has converged.)

Symmetries present (total): 12

  ( 1  1  0)  ( 1  1  0)  ( 1  0  0)  ( 1  0  0)  ( 0  1  0)  ( 0  1  0)
  ( 0 -1  0)  ( 0 -1  0)  ( 0  1  0)  ( 0  1  0)  (-1 -1  0)  (-1 -1  0)
  ( 0  0  1)  ( 0  0 -1)  ( 0  0  1)  ( 0  0 -1)  ( 0  0  1)  ( 0  0 -1)

  ( 0 -1  0)  ( 0 -1  0)  (-1  0  0)  (-1  0  0)  (-1 -1  0)  (-1 -1  0)
  (-1  0  0)  (-1  0  0)  ( 1  1  0)  ( 1  1  0)  ( 1  0  0)  ( 1  0  0)
  ( 0  0  1)  ( 0  0 -1)  ( 0  0  1)  ( 0  0 -1)  ( 0  0  1)  ( 0  0 -1)
Note: your k-points are not as symmetric as your crystal!

64 k-points: 4 x 4 x 4 Monkhorst-Pack grid
12 k-points in the irreducible part of the Brillouin zone
       k-points in crystal coordinates                weights
   0:     0.12500000   -0.12500000    0.12500000          4/64
   1:     0.12500000   -0.12500000    0.37500000          4/64
   2:     0.12500000    0.12500000    0.12500000          4/64
   3:     0.12500000    0.12500000    0.37500000          4/64
   4:     0.37500000   -0.37500000    0.12500000          4/64
   5:     0.37500000   -0.37500000    0.37500000          4/64
   6:     0.37500000   -0.12500000    0.12500000          8/64
   7:     0.37500000   -0.12500000    0.37500000          8/64
   8:     0.37500000    0.12500000    0.12500000          8/64
   9:     0.37500000    0.12500000    0.37500000          8/64
          ...
  11:     0.37500000    0.37500000    0.37500000          4/64

Wave functions: Plane wave expansion
  Cutoff energy: 300.000 eV
  Number of coefficients (min, max): 1437, 1470
  Pulay-stress correction: 0.000000 eV/Ang^3 (de/decut=0.000000)
  Using FFTW library
  ScaLapack parameters: grid=1x1, blocksize=None
  Wavefunction extrapolation:
    Improved wavefunction reuse through dual PAW basis 

Occupation numbers: Fermi-Dirac:
  width: 0.1000  # eV
 

Eigensolver
   Davidson(niter=2) 

Densities:
  Coarse grid: 12*12*80 grid
  Fine grid: 24*24*160 grid
  Total Charge: 0.000000 

Density mixing:
  Method: separate
  Backend: pulay
  Linear mixing parameter: 0.05
  old densities: 5
  Damping of long wavelength oscillations: 50 

Hamiltonian:
  XC and Coulomb potentials evaluated on a 24*24*160 grid
  Using the LDA Exchange-Correlation functional
  External potential:
    NoExternalPotential
 

Memory estimate:
  Process memory now: 286.70 MiB
  Calculator: 11.30 MiB
    Density: 4.71 MiB
      Arrays: 2.29 MiB
      Localized functions: 1.54 MiB
      Mixer: 0.88 MiB
    Hamiltonian: 1.53 MiB
      Arrays: 1.49 MiB
      XC: 0.00 MiB
      Poisson: 0.00 MiB
      vbar: 0.03 MiB
    Wavefunctions: 5.07 MiB
      Arrays psit_nG: 2.15 MiB
      Eigensolver: 0.30 MiB
      Projections: 0.04 MiB
      Projectors: 1.87 MiB
      PW-descriptor: 0.71 MiB

Total number of cores used: 1

Number of atoms: 2
Number of atomic orbitals: 8
Number of bands in calculation: 8
Number of valence electrons: 8
Bands to converge: occupied

... initialized

Initializing position-dependent things.

Density initialized from atomic densities
Creating initial wave functions:
  8 bands from LCAO basis set

                 
                 
                 
                 
       CC        
                 
                 
                 
                 

Positions:
   0 C      0.000000    0.000000    0.000000    ( 0.0000,  0.0000,  0.0000)
   1 C      0.000000    1.539601    0.000000    ( 0.0000,  0.0000,  0.0000)

Unit cell:
           periodic     x           y           z      points  spacing
  1. axis:    yes    2.666667    0.000000    0.000000    12     0.1925
  2. axis:    yes   -1.333333    2.309401    0.000000    12     0.1925
  3. axis:    yes    0.000000    0.000000   20.000000    80     0.2500

  Lengths:   2.666667   2.666667  20.000000
  Angles:   90.000000  90.000000 120.000000

Effective grid spacing dv^(1/3) = 0.2203

     iter     time        total  log10-change:
                         energy  eigst   dens
iter:   1 18:51:28   -18.515013
iter:   2 18:51:28   -18.489498  -1.13  -0.88
iter:   3 18:51:28   -18.161088  -0.93  -0.89
iter:   4 18:51:28   -18.164276  -2.42  -1.43
iter:   5 18:51:28   -18.172052  -3.22  -1.41
iter:   6 18:51:28   -18.099193  -1.81  -1.38
iter:   7 18:51:28   -18.099353  -3.33  -2.62
iter:   8 18:51:29   -18.098907c -4.13  -2.56
iter:   9 18:51:29   -18.098921c -5.32  -3.13
iter:  10 18:51:29   -18.098916c -5.73  -3.49
iter:  11 18:51:29   -18.098916c -6.87  -4.11c
iter:  12 18:51:29   -18.098916c -7.08  -4.14c
iter:  13 18:51:29   -18.098916c -7.77c -4.53c

Converged after 13 iterations.

Dipole moment: (-0.829623, 0.478983, -0.000000) |e|*Ang

Energy contributions relative to reference atoms: (reference = -2037.605076)

Kinetic:         -7.168400
Potential:       +3.213231
External:        +0.000000
XC:             -14.237637
Entropy (-ST):   -0.000131
Local:           +0.093956
--------------------------
Free energy:    -18.098981
Extrapolated:   -18.098916

Showing only first 2 kpts
 Kpt  Band  Eigenvalues  Occupancy
  0     2     -7.86603    2.00000
  0     3     -7.13512    2.00000
  0     4      0.92226    0.00000
  0     5      1.73594    0.00000

  1     2     -7.86663    2.00000
  1     3     -7.13971    2.00000
  1     4      0.92451    0.00000
  1     5      1.67065    0.00000


Fermi level: -3.49591

Gap: 1.627 eV
Transition (v -> c):
  (s=0, k=11, n=3, [0.38, 0.38, 0.38]) -> (s=0, k=10, n=4, [0.38, 0.38, 0.12])
Writing to graphene-2.7.gpw (mode='')

Timing:                              incl.     excl.
-----------------------------------------------------------
Hamiltonian:                         0.010     0.000   0.0% |
 Atomic:                             0.006     0.000   0.0% |
  XC Correction:                     0.005     0.005   0.5% |
 Calculate atomic Hamiltonians:      0.001     0.001   0.1% |
 Communicate:                        0.000     0.000   0.0% |
 Initialize Hamiltonian:             0.000     0.000   0.0% |
 Poisson:                            0.000     0.000   0.0% |
 XC 3D grid:                         0.003     0.003   0.3% |
LCAO initialization:                 0.059     0.005   0.4% |
 LCAO eigensolver:                   0.017     0.000   0.0% |
  Calculate projections:             0.000     0.000   0.0% |
  DenseAtomicCorrection:             0.000     0.000   0.0% |
  Distribute overlap matrix:         0.000     0.000   0.0% |
  Orbital Layouts:                   0.000     0.000   0.0% |
  Potential matrix:                  0.015     0.015   1.3% ||
  Sum over cells:                    0.001     0.001   0.1% |
 LCAO to grid:                       0.019     0.019   1.7% ||
 Set positions (LCAO WFS):           0.018     0.003   0.3% |
  Basic WFS set positions:           0.000     0.000   0.0% |
  Basis functions set positions:     0.000     0.000   0.0% |
  P tci:                             0.006     0.006   0.5% |
  ST tci:                            0.007     0.007   0.6% |
  mktci:                             0.002     0.002   0.2% |
PWDescriptor:                        0.002     0.002   0.2% |
SCF-cycle:                           0.945     0.020   1.8% ||
 Davidson:                           0.717     0.157  14.2% |-----|
  Apply H:                           0.104     0.100   9.0% |---|
   HMM T:                            0.004     0.004   0.4% |
  Subspace diag:                     0.137     0.003   0.3% |
   calc_h_matrix:                    0.116     0.012   1.1% |
    Apply H:                         0.105     0.100   9.1% |---|
     HMM T:                          0.005     0.005   0.4% |
   diagonalize:                      0.006     0.006   0.6% |
   rotate_psi:                       0.012     0.012   1.1% |
  calc. matrices:                    0.280     0.072   6.5% |--|
   Apply H:                          0.208     0.199  18.0% |------|
    HMM T:                           0.009     0.009   0.8% |
  diagonalize:                       0.016     0.016   1.5% ||
  rotate_psi:                        0.022     0.022   2.0% ||
 Density:                            0.084     0.000   0.0% |
  Atomic density matrices:           0.004     0.004   0.4% |
  Mix:                               0.025     0.025   2.3% ||
  Multipole moments:                 0.000     0.000   0.0% |
  Pseudo density:                    0.054     0.047   4.2% |-|
   Symmetrize density:               0.007     0.007   0.6% |
 Hamiltonian:                        0.121     0.002   0.2% |
  Atomic:                            0.067     0.002   0.2% |
   XC Correction:                    0.065     0.065   5.9% |-|
  Calculate atomic Hamiltonians:     0.009     0.009   0.8% |
  Communicate:                       0.000     0.000   0.0% |
  Poisson:                           0.001     0.001   0.1% |
  XC 3D grid:                        0.041     0.041   3.7% ||
 Orthonormalize:                     0.003     0.000   0.0% |
  calc_s_matrix:                     0.001     0.001   0.1% |
  inverse-cholesky:                  0.000     0.000   0.0% |
  projections:                       0.002     0.002   0.2% |
  rotate_psi_s:                      0.000     0.000   0.0% |
Set symmetry:                        0.003     0.003   0.3% |
Other:                               0.086     0.086   7.8% |--|
-----------------------------------------------------------
Total:                                         1.105 100.0%

Memory usage: 286.70 MiB
Date: Thu May  4 18:51:29 2023
