
  ___ ___ ___ _ _ _  
 |   |   |_  | | | | 
 | | | | | . | | | | 
 |__ |  _|___|_____|  22.8.0
 |___|_|             

User:   austin@austinhoustonmacm1.nomads.utk.edu
Date:   Thu May  4 18:51:26 2023
Arch:   arm64
Pid:    25491
CWD:    /Users/austin/Desktop/dft_class/final_project
Python: 3.8.16
gpaw:   /Users/austin/tensorflow_env/env/lib/python3.8/site-packages/gpaw
_gpaw:  /Users/austin/tensorflow_env/env/lib/python3.8/site-packages/
        _gpaw.cpython-38-darwin.so
ase:    /Users/austin/tensorflow_env/env/lib/python3.8/site-packages/ase (version 3.22.1)
numpy:  /Users/austin/tensorflow_env/env/lib/python3.8/site-packages/numpy (version 1.23.2)
scipy:  /Users/austin/tensorflow_env/env/lib/python3.8/site-packages/scipy (version 1.9.1)
libxc:  6.1.0
units:  Angstrom and eV
cores: 1
OpenMP: False
OMP_NUM_THREADS: 1

Input parameters:
  kpts: [4 4 4]
  mode: {ecut: 300.0,
         name: pw}

System changes: positions, numbers, cell, pbc, initial_charges, initial_magmoms 

Initialize ...

species:
  C:
    name: Carbon
    id: d60576a1f549371a163e72552ca58787
    Z: 6.0
    valence: 4
    core: 2
    charge: 0.0
    file: /Users/austin/gpaw-setups-0.9.20000/C.LDA.gz
    compensation charges: {type: gauss,
                           rc: 0.20,
                           lmax: 2}
    cutoffs: {filter: 1.14,
              core: 1.14}
    valence states:
      #              energy  rcut
      - 2s(2.00)   -13.639   0.635
      - 2p(2.00)    -5.414   0.635
      -  s          13.573   0.635
      -  p          21.797   0.635
      -  d           0.000   0.635
  
    # Using partial waves for C as LCAO basis

Reference energy: -2037.605076  # eV

Spin-paired calculation

Convergence criteria:
 Maximum [total energy] change in last 3 cyles: 0.0005 eV / electron
 Maximum integral of absolute [dens]ity change: 0.0001 electrons / valence electron
 Maximum integral of absolute [eigenst]ate change: 4e-08 eV^2 / valence electron
 Maximum number of scf [iter]ations: 333
 (Square brackets indicate name in SCF output, whereas a 'c' in
 the SCF output indicates the quantity has converged.)

Symmetries present (total): 12

  ( 1  1  0)  ( 1  1  0)  ( 1  0  0)  ( 1  0  0)  ( 0  1  0)  ( 0  1  0)
  ( 0 -1  0)  ( 0 -1  0)  ( 0  1  0)  ( 0  1  0)  (-1 -1  0)  (-1 -1  0)
  ( 0  0  1)  ( 0  0 -1)  ( 0  0  1)  ( 0  0 -1)  ( 0  0  1)  ( 0  0 -1)

  ( 0 -1  0)  ( 0 -1  0)  (-1  0  0)  (-1  0  0)  (-1 -1  0)  (-1 -1  0)
  (-1  0  0)  (-1  0  0)  ( 1  1  0)  ( 1  1  0)  ( 1  0  0)  ( 1  0  0)
  ( 0  0  1)  ( 0  0 -1)  ( 0  0  1)  ( 0  0 -1)  ( 0  0  1)  ( 0  0 -1)
Note: your k-points are not as symmetric as your crystal!

64 k-points: 4 x 4 x 4 Monkhorst-Pack grid
12 k-points in the irreducible part of the Brillouin zone
       k-points in crystal coordinates                weights
   0:     0.12500000   -0.12500000    0.12500000          4/64
   1:     0.12500000   -0.12500000    0.37500000          4/64
   2:     0.12500000    0.12500000    0.12500000          4/64
   3:     0.12500000    0.12500000    0.37500000          4/64
   4:     0.37500000   -0.37500000    0.12500000          4/64
   5:     0.37500000   -0.37500000    0.37500000          4/64
   6:     0.37500000   -0.12500000    0.12500000          8/64
   7:     0.37500000   -0.12500000    0.37500000          8/64
   8:     0.37500000    0.12500000    0.12500000          8/64
   9:     0.37500000    0.12500000    0.37500000          8/64
          ...
  11:     0.37500000    0.37500000    0.37500000          4/64

Wave functions: Plane wave expansion
  Cutoff energy: 300.000 eV
  Number of coefficients (min, max): 1316, 1365
  Pulay-stress correction: 0.000000 eV/Ang^3 (de/decut=0.000000)
  Using FFTW library
  ScaLapack parameters: grid=1x1, blocksize=None
  Wavefunction extrapolation:
    Improved wavefunction reuse through dual PAW basis 

Occupation numbers: Fermi-Dirac:
  width: 0.1000  # eV
 

Eigensolver
   Davidson(niter=2) 

Densities:
  Coarse grid: 12*12*80 grid
  Fine grid: 24*24*160 grid
  Total Charge: 0.000000 

Density mixing:
  Method: separate
  Backend: pulay
  Linear mixing parameter: 0.05
  old densities: 5
  Damping of long wavelength oscillations: 50 

Hamiltonian:
  XC and Coulomb potentials evaluated on a 24*24*160 grid
  Using the LDA Exchange-Correlation functional
  External potential:
    NoExternalPotential
 

Memory estimate:
  Process memory now: 286.70 MiB
  Calculator: 10.82 MiB
    Density: 4.57 MiB
      Arrays: 2.29 MiB
      Localized functions: 1.41 MiB
      Mixer: 0.88 MiB
    Hamiltonian: 1.52 MiB
      Arrays: 1.49 MiB
      XC: 0.00 MiB
      Poisson: 0.00 MiB
      vbar: 0.03 MiB
    Wavefunctions: 4.72 MiB
      Arrays psit_nG: 2.00 MiB
      Eigensolver: 0.28 MiB
      Projections: 0.04 MiB
      Projectors: 1.71 MiB
      PW-descriptor: 0.69 MiB

Total number of cores used: 1

Number of atoms: 2
Number of atomic orbitals: 8
Number of bands in calculation: 8
Number of valence electrons: 8
Bands to converge: occupied

... initialized

Initializing position-dependent things.

Density initialized from atomic densities
Creating initial wave functions:
  8 bands from LCAO basis set

                 
                 
                 
                 
       CC        
                 
                 
                 
                 

Positions:
   0 C      0.000000    0.000000    0.000000    ( 0.0000,  0.0000,  0.0000)
   1 C      0.000000    1.475451    0.000000    ( 0.0000,  0.0000,  0.0000)

Unit cell:
           periodic     x           y           z      points  spacing
  1. axis:    yes    2.555556    0.000000    0.000000    12     0.1844
  2. axis:    yes   -1.277778    2.213176    0.000000    12     0.1844
  3. axis:    yes    0.000000    0.000000   20.000000    80     0.2500

  Lengths:   2.555556   2.555556  20.000000
  Angles:   90.000000  90.000000 120.000000

Effective grid spacing dv^(1/3) = 0.2141

     iter     time        total  log10-change:
                         energy  eigst   dens
iter:   1 18:51:26   -19.424868
iter:   2 18:51:27   -19.368340  -1.02  -0.83
iter:   3 18:51:27   -18.957945  -0.62  -0.85
iter:   4 18:51:27   -18.844098  -2.49  -1.16
iter:   5 18:51:27   -18.899058  -2.79  -1.30
iter:   6 18:51:27   -18.733707  -1.49  -1.21
iter:   7 18:51:27   -18.734477  -2.94  -2.79
iter:   8 18:51:27   -18.733910c -4.06  -2.52
iter:   9 18:51:27   -18.735934c -3.56  -2.88
iter:  10 18:51:27   -18.741714  -3.41  -2.20
iter:  11 18:51:27   -18.752361  -3.31  -1.89
iter:  12 18:51:27   -18.733822  -2.60  -1.70
iter:  13 18:51:27   -18.733864  -4.09  -3.36
iter:  14 18:51:27   -18.733866c -5.20  -3.94
iter:  15 18:51:27   -18.733877c -5.40  -4.12c
iter:  16 18:51:28   -18.733872c -6.39  -3.29
iter:  17 18:51:28   -18.733867c -6.50  -3.41
iter:  18 18:51:28   -18.733866c -6.41  -3.71
iter:  19 18:51:28   -18.733866c -8.12c -4.24c

Converged after 19 iterations.

Dipole moment: (-0.864790, 0.499287, -0.000000) |e|*Ang

Energy contributions relative to reference atoms: (reference = -2037.605076)

Kinetic:         +2.834176
Potential:       -4.864559
External:        +0.000000
XC:             -16.809683
Entropy (-ST):   -0.000059
Local:           +0.106229
--------------------------
Free energy:    -18.733896
Extrapolated:   -18.733866

Showing only first 2 kpts
 Kpt  Band  Eigenvalues  Occupancy
  0     2     -7.55405    2.00000
  0     3     -6.87210    2.00000
  0     4      1.00855    0.00000
  0     5      1.85495    0.00000

  1     2     -7.54960    2.00000
  1     3     -6.86075    2.00000
  1     4      1.01045    0.00000
  1     5      1.79122    0.00000


Fermi level: -3.12009

Gap: 1.801 eV
Transition (v -> c):
  (s=0, k=10, n=3, [0.38, 0.38, 0.12]) -> (s=0, k=11, n=4, [0.38, 0.38, 0.38])
Writing to graphene-2.6.gpw (mode='')

Timing:                              incl.     excl.
-----------------------------------------------------------
Hamiltonian:                         0.011     0.000   0.0% |
 Atomic:                             0.006     0.000   0.0% |
  XC Correction:                     0.006     0.006   0.4% |
 Calculate atomic Hamiltonians:      0.001     0.001   0.0% |
 Communicate:                        0.000     0.000   0.0% |
 Initialize Hamiltonian:             0.000     0.000   0.0% |
 Poisson:                            0.000     0.000   0.0% |
 XC 3D grid:                         0.004     0.004   0.2% |
LCAO initialization:                 0.077     0.005   0.3% |
 LCAO eigensolver:                   0.022     0.000   0.0% |
  Calculate projections:             0.000     0.000   0.0% |
  DenseAtomicCorrection:             0.001     0.001   0.0% |
  Distribute overlap matrix:         0.000     0.000   0.0% |
  Orbital Layouts:                   0.001     0.001   0.0% |
  Potential matrix:                  0.019     0.019   1.2% |
  Sum over cells:                    0.002     0.002   0.1% |
 LCAO to grid:                       0.027     0.027   1.7% ||
 Set positions (LCAO WFS):           0.022     0.004   0.3% |
  Basic WFS set positions:           0.000     0.000   0.0% |
  Basis functions set positions:     0.000     0.000   0.0% |
  P tci:                             0.007     0.007   0.4% |
  ST tci:                            0.008     0.008   0.5% |
  mktci:                             0.003     0.003   0.2% |
PWDescriptor:                        0.002     0.002   0.1% |
SCF-cycle:                           1.435     0.030   1.9% ||
 Davidson:                           1.080     0.228  14.2% |-----|
  Apply H:                           0.158     0.151   9.4% |---|
   HMM T:                            0.006     0.006   0.4% |
  Subspace diag:                     0.208     0.005   0.3% |
   calc_h_matrix:                    0.174     0.018   1.1% |
    Apply H:                         0.157     0.150   9.4% |---|
     HMM T:                          0.007     0.007   0.4% |
   diagonalize:                      0.010     0.010   0.6% |
   rotate_psi:                       0.018     0.018   1.1% |
  calc. matrices:                    0.430     0.108   6.8% |--|
   Apply H:                          0.322     0.310  19.3% |-------|
    HMM T:                           0.012     0.012   0.8% |
  diagonalize:                       0.027     0.027   1.7% ||
  rotate_psi:                        0.030     0.030   1.9% ||
 Density:                            0.132     0.000   0.0% |
  Atomic density matrices:           0.007     0.007   0.4% |
  Mix:                               0.042     0.042   2.6% ||
  Multipole moments:                 0.001     0.001   0.0% |
  Pseudo density:                    0.082     0.072   4.5% |-|
   Symmetrize density:               0.011     0.011   0.7% |
 Hamiltonian:                        0.188     0.003   0.2% |
  Atomic:                            0.107     0.004   0.2% |
   XC Correction:                    0.103     0.103   6.4% |--|
  Calculate atomic Hamiltonians:     0.013     0.013   0.8% |
  Communicate:                       0.000     0.000   0.0% |
  Poisson:                           0.002     0.002   0.1% |
  XC 3D grid:                        0.063     0.063   3.9% |-|
 Orthonormalize:                     0.004     0.000   0.0% |
  calc_s_matrix:                     0.001     0.001   0.0% |
  inverse-cholesky:                  0.000     0.000   0.0% |
  projections:                       0.002     0.002   0.1% |
  rotate_psi_s:                      0.000     0.000   0.0% |
Set symmetry:                        0.003     0.003   0.2% |
Other:                               0.075     0.075   4.7% |-|
-----------------------------------------------------------
Total:                                         1.602 100.0%

Memory usage: 286.70 MiB
Date: Thu May  4 18:51:28 2023
