
  ___ ___ ___ _ _ _  
 |   |   |_  | | | | 
 | | | | | . | | | | 
 |__ |  _|___|_____|  22.8.0
 |___|_|             

User:   austin@austinhoustonmacm1.nomads.utk.edu
Date:   Thu May  4 18:51:22 2023
Arch:   arm64
Pid:    25491
CWD:    /Users/austin/Desktop/dft_class/final_project
Python: 3.8.16
gpaw:   /Users/austin/tensorflow_env/env/lib/python3.8/site-packages/gpaw
_gpaw:  /Users/austin/tensorflow_env/env/lib/python3.8/site-packages/
        _gpaw.cpython-38-darwin.so
ase:    /Users/austin/tensorflow_env/env/lib/python3.8/site-packages/ase (version 3.22.1)
numpy:  /Users/austin/tensorflow_env/env/lib/python3.8/site-packages/numpy (version 1.23.2)
scipy:  /Users/austin/tensorflow_env/env/lib/python3.8/site-packages/scipy (version 1.9.1)
libxc:  6.1.0
units:  Angstrom and eV
cores: 1
OpenMP: False
OMP_NUM_THREADS: 1

Input parameters:
  kpts: [4 4 4]
  mode: {ecut: 300.0,
         name: pw}

System changes: positions, numbers, cell, pbc, initial_charges, initial_magmoms 

Initialize ...

species:
  C:
    name: Carbon
    id: d60576a1f549371a163e72552ca58787
    Z: 6.0
    valence: 4
    core: 2
    charge: 0.0
    file: /Users/austin/gpaw-setups-0.9.20000/C.LDA.gz
    compensation charges: {type: gauss,
                           rc: 0.20,
                           lmax: 2}
    cutoffs: {filter: 1.14,
              core: 1.14}
    valence states:
      #              energy  rcut
      - 2s(2.00)   -13.639   0.635
      - 2p(2.00)    -5.414   0.635
      -  s          13.573   0.635
      -  p          21.797   0.635
      -  d           0.000   0.635
  
    # Using partial waves for C as LCAO basis

Reference energy: -2037.605076  # eV

Spin-paired calculation

Convergence criteria:
 Maximum [total energy] change in last 3 cyles: 0.0005 eV / electron
 Maximum integral of absolute [dens]ity change: 0.0001 electrons / valence electron
 Maximum integral of absolute [eigenst]ate change: 4e-08 eV^2 / valence electron
 Maximum number of scf [iter]ations: 333
 (Square brackets indicate name in SCF output, whereas a 'c' in
 the SCF output indicates the quantity has converged.)

Symmetries present (total): 12

  ( 1  1  0)  ( 1  1  0)  ( 1  0  0)  ( 1  0  0)  ( 0  1  0)  ( 0  1  0)
  ( 0 -1  0)  ( 0 -1  0)  ( 0  1  0)  ( 0  1  0)  (-1 -1  0)  (-1 -1  0)
  ( 0  0  1)  ( 0  0 -1)  ( 0  0  1)  ( 0  0 -1)  ( 0  0  1)  ( 0  0 -1)

  ( 0 -1  0)  ( 0 -1  0)  (-1  0  0)  (-1  0  0)  (-1 -1  0)  (-1 -1  0)
  (-1  0  0)  (-1  0  0)  ( 1  1  0)  ( 1  1  0)  ( 1  0  0)  ( 1  0  0)
  ( 0  0  1)  ( 0  0 -1)  ( 0  0  1)  ( 0  0 -1)  ( 0  0  1)  ( 0  0 -1)
Note: your k-points are not as symmetric as your crystal!

64 k-points: 4 x 4 x 4 Monkhorst-Pack grid
12 k-points in the irreducible part of the Brillouin zone
       k-points in crystal coordinates                weights
   0:     0.12500000   -0.12500000    0.12500000          4/64
   1:     0.12500000   -0.12500000    0.37500000          4/64
   2:     0.12500000    0.12500000    0.12500000          4/64
   3:     0.12500000    0.12500000    0.37500000          4/64
   4:     0.37500000   -0.37500000    0.12500000          4/64
   5:     0.37500000   -0.37500000    0.37500000          4/64
   6:     0.37500000   -0.12500000    0.12500000          8/64
   7:     0.37500000   -0.12500000    0.37500000          8/64
   8:     0.37500000    0.12500000    0.12500000          8/64
   9:     0.37500000    0.12500000    0.37500000          8/64
          ...
  11:     0.37500000    0.37500000    0.37500000          4/64

Wave functions: Plane wave expansion
  Cutoff energy: 300.000 eV
  Number of coefficients (min, max): 872, 928
  Pulay-stress correction: 0.000000 eV/Ang^3 (de/decut=0.000000)
  Using FFTW library
  ScaLapack parameters: grid=1x1, blocksize=None
  Wavefunction extrapolation:
    Improved wavefunction reuse through dual PAW basis 

Occupation numbers: Fermi-Dirac:
  width: 0.1000  # eV
 

Eigensolver
   Davidson(niter=2) 

Densities:
  Coarse grid: 9*9*80 grid
  Fine grid: 18*18*160 grid
  Total Charge: 0.000000 

Density mixing:
  Method: separate
  Backend: pulay
  Linear mixing parameter: 0.05
  old densities: 5
  Damping of long wavelength oscillations: 50 

Hamiltonian:
  XC and Coulomb potentials evaluated on a 18*18*160 grid
  Using the LDA Exchange-Correlation functional
  External potential:
    NoExternalPotential
 

Memory estimate:
  Process memory now: 286.70 MiB
  Calculator: 6.78 MiB
    Density: 2.75 MiB
      Arrays: 1.29 MiB
      Localized functions: 0.97 MiB
      Mixer: 0.49 MiB
    Hamiltonian: 0.86 MiB
      Arrays: 0.84 MiB
      XC: 0.00 MiB
      Poisson: 0.00 MiB
      vbar: 0.02 MiB
    Wavefunctions: 3.17 MiB
      Arrays psit_nG: 1.36 MiB
      Eigensolver: 0.19 MiB
      Projections: 0.04 MiB
      Projectors: 1.16 MiB
      PW-descriptor: 0.42 MiB

Total number of cores used: 1

Number of atoms: 2
Number of atomic orbitals: 8
Number of bands in calculation: 8
Number of valence electrons: 8
Bands to converge: occupied

... initialized

Initializing position-dependent things.

Density initialized from atomic densities
Creating initial wave functions:
  8 bands from LCAO basis set

                 
                 
                 
                 
       CC        
                 
                 
                 
                 

Positions:
   0 C      0.000000    0.000000    0.000000    ( 0.0000,  0.0000,  0.0000)
   1 C      0.000000    1.218851    0.000000    ( 0.0000,  0.0000,  0.0000)

Unit cell:
           periodic     x           y           z      points  spacing
  1. axis:    yes    2.111111    0.000000    0.000000     9     0.2031
  2. axis:    yes   -1.055556    1.828276    0.000000     9     0.2031
  3. axis:    yes    0.000000    0.000000   20.000000    80     0.2500

  Lengths:   2.111111   2.111111  20.000000
  Angles:   90.000000  90.000000 120.000000

Effective grid spacing dv^(1/3) = 0.2284

     iter     time        total  log10-change:
                         energy  eigst   dens
iter:   1 18:51:22   -18.070957
iter:   2 18:51:22   -17.635107  -0.53  -0.61
iter:   3 18:51:22   -15.154871  -0.26  -0.63
iter:   4 18:51:22   -14.468750  -1.31  -0.97
iter:   5 18:51:22   -14.543532  -2.25  -1.46
iter:   6 18:51:22   -14.451118  -1.87  -1.40
iter:   7 18:51:22   -14.451280  -3.28  -2.86
iter:   8 18:51:22   -14.451476c -3.96  -2.93
iter:   9 18:51:22   -14.451255c -4.20  -2.66
iter:  10 18:51:23   -14.451260c -5.16  -3.35
iter:  11 18:51:23   -14.451247c -5.16  -3.27
iter:  12 18:51:23   -14.451242c -6.14  -3.49
iter:  13 18:51:23   -14.451248c -5.83  -4.03c
iter:  14 18:51:23   -14.451246c -5.61  -3.48
iter:  15 18:51:23   -14.451242c -6.43  -3.57
iter:  16 18:51:23   -14.451242c -7.75c -4.81c

Converged after 16 iterations.

Dipole moment: (-0.969092, 0.559505, -0.000000) |e|*Ang

Energy contributions relative to reference atoms: (reference = -2037.605076)

Kinetic:        +69.394930
Potential:      -53.156003
External:        +0.000000
XC:             -30.754021
Entropy (-ST):   -0.000001
Local:           +0.063853
--------------------------
Free energy:    -14.451242
Extrapolated:   -14.451242

Showing only first 2 kpts
 Kpt  Band  Eigenvalues  Occupancy
  0     2     -4.84675    2.00000
  0     3     -4.07868    2.00000
  0     4      1.51274    0.00000
  0     5      2.43890    0.00000

  1     2     -4.86111    2.00000
  1     3     -4.07259    2.00000
  1     4      1.51412    0.00000
  1     5      2.37590    0.00000


Fermi level: -0.90586

Gap: 2.752 eV
Transition (v -> c):
  (s=0, k=11, n=3, [0.38, 0.38, 0.38]) -> (s=0, k=11, n=4, [0.38, 0.38, 0.38])
Writing to graphene-2.1.gpw (mode='')

Timing:                              incl.     excl.
-----------------------------------------------------------
Hamiltonian:                         0.009     0.000   0.0% |
 Atomic:                             0.006     0.000   0.0% |
  XC Correction:                     0.005     0.005   0.5% |
 Calculate atomic Hamiltonians:      0.001     0.001   0.1% |
 Communicate:                        0.000     0.000   0.0% |
 Initialize Hamiltonian:             0.000     0.000   0.0% |
 Poisson:                            0.000     0.000   0.0% |
 XC 3D grid:                         0.002     0.002   0.2% |
LCAO initialization:                 0.070     0.006   0.5% |
 LCAO eigensolver:                   0.023     0.000   0.0% |
  Calculate projections:             0.000     0.000   0.0% |
  DenseAtomicCorrection:             0.000     0.000   0.0% |
  Distribute overlap matrix:         0.000     0.000   0.0% |
  Orbital Layouts:                   0.001     0.001   0.0% |
  Potential matrix:                  0.020     0.020   1.8% ||
  Sum over cells:                    0.002     0.002   0.1% |
 LCAO to grid:                       0.014     0.014   1.3% ||
 Set positions (LCAO WFS):           0.027     0.004   0.4% |
  Basic WFS set positions:           0.000     0.000   0.0% |
  Basis functions set positions:     0.000     0.000   0.0% |
  P tci:                             0.008     0.008   0.7% |
  ST tci:                            0.011     0.011   1.0% |
  mktci:                             0.004     0.004   0.3% |
PWDescriptor:                        0.001     0.001   0.1% |
SCF-cycle:                           0.990     0.032   2.8% ||
 Davidson:                           0.720     0.167  14.7% |-----|
  Apply H:                           0.089     0.084   7.4% |--|
   HMM T:                            0.005     0.005   0.4% |
  Subspace diag:                     0.147     0.005   0.5% |
   calc_h_matrix:                    0.119     0.015   1.3% ||
    Apply H:                         0.104     0.096   8.5% |--|
     HMM T:                          0.008     0.008   0.7% |
   diagonalize:                      0.010     0.010   0.9% |
   rotate_psi:                       0.013     0.013   1.1% |
  calc. matrices:                    0.272     0.088   7.8% |--|
   Apply H:                          0.184     0.173  15.3% |-----|
    HMM T:                           0.011     0.011   1.0% |
  diagonalize:                       0.026     0.026   2.3% ||
  rotate_psi:                        0.020     0.020   1.7% ||
 Density:                            0.080     0.000   0.0% |
  Atomic density matrices:           0.006     0.006   0.5% |
  Mix:                               0.030     0.030   2.7% ||
  Multipole moments:                 0.001     0.001   0.1% |
  Pseudo density:                    0.043     0.038   3.4% ||
   Symmetrize density:               0.006     0.006   0.5% |
 Hamiltonian:                        0.155     0.002   0.2% |
  Atomic:                            0.101     0.004   0.3% |
   XC Correction:                    0.098     0.098   8.6% |--|
  Calculate atomic Hamiltonians:     0.011     0.011   1.0% |
  Communicate:                       0.000     0.000   0.0% |
  Poisson:                           0.002     0.002   0.1% |
  XC 3D grid:                        0.039     0.039   3.4% ||
 Orthonormalize:                     0.003     0.000   0.0% |
  calc_s_matrix:                     0.001     0.001   0.0% |
  inverse-cholesky:                  0.000     0.000   0.0% |
  projections:                       0.001     0.001   0.1% |
  rotate_psi_s:                      0.000     0.000   0.0% |
Set symmetry:                        0.003     0.003   0.3% |
Other:                               0.060     0.060   5.3% |-|
-----------------------------------------------------------
Total:                                         1.132 100.0%

Memory usage: 286.70 MiB
Date: Thu May  4 18:51:23 2023
