
  ___ ___ ___ _ _ _  
 |   |   |_  | | | | 
 | | | | | . | | | | 
 |__ |  _|___|_____|  22.8.0
 |___|_|             

User:   austin@austinhoustonmacm1.nomads.utk.edu
Date:   Thu May  4 18:51:30 2023
Arch:   arm64
Pid:    25491
CWD:    /Users/austin/Desktop/dft_class/final_project
Python: 3.8.16
gpaw:   /Users/austin/tensorflow_env/env/lib/python3.8/site-packages/gpaw
_gpaw:  /Users/austin/tensorflow_env/env/lib/python3.8/site-packages/
        _gpaw.cpython-38-darwin.so
ase:    /Users/austin/tensorflow_env/env/lib/python3.8/site-packages/ase (version 3.22.1)
numpy:  /Users/austin/tensorflow_env/env/lib/python3.8/site-packages/numpy (version 1.23.2)
scipy:  /Users/austin/tensorflow_env/env/lib/python3.8/site-packages/scipy (version 1.9.1)
libxc:  6.1.0
units:  Angstrom and eV
cores: 1
OpenMP: False
OMP_NUM_THREADS: 1

Input parameters:
  kpts: [4 4 4]
  mode: {ecut: 300.0,
         name: pw}

System changes: positions, numbers, cell, pbc, initial_charges, initial_magmoms 

Initialize ...

species:
  C:
    name: Carbon
    id: d60576a1f549371a163e72552ca58787
    Z: 6.0
    valence: 4
    core: 2
    charge: 0.0
    file: /Users/austin/gpaw-setups-0.9.20000/C.LDA.gz
    compensation charges: {type: gauss,
                           rc: 0.20,
                           lmax: 2}
    cutoffs: {filter: 1.14,
              core: 1.14}
    valence states:
      #              energy  rcut
      - 2s(2.00)   -13.639   0.635
      - 2p(2.00)    -5.414   0.635
      -  s          13.573   0.635
      -  p          21.797   0.635
      -  d           0.000   0.635
  
    # Using partial waves for C as LCAO basis

Reference energy: -2037.605076  # eV

Spin-paired calculation

Convergence criteria:
 Maximum [total energy] change in last 3 cyles: 0.0005 eV / electron
 Maximum integral of absolute [dens]ity change: 0.0001 electrons / valence electron
 Maximum integral of absolute [eigenst]ate change: 4e-08 eV^2 / valence electron
 Maximum number of scf [iter]ations: 333
 (Square brackets indicate name in SCF output, whereas a 'c' in
 the SCF output indicates the quantity has converged.)

Symmetries present (total): 12

  ( 1  1  0)  ( 1  1  0)  ( 1  0  0)  ( 1  0  0)  ( 0  1  0)  ( 0  1  0)
  ( 0 -1  0)  ( 0 -1  0)  ( 0  1  0)  ( 0  1  0)  (-1 -1  0)  (-1 -1  0)
  ( 0  0  1)  ( 0  0 -1)  ( 0  0  1)  ( 0  0 -1)  ( 0  0  1)  ( 0  0 -1)

  ( 0 -1  0)  ( 0 -1  0)  (-1  0  0)  (-1  0  0)  (-1 -1  0)  (-1 -1  0)
  (-1  0  0)  (-1  0  0)  ( 1  1  0)  ( 1  1  0)  ( 1  0  0)  ( 1  0  0)
  ( 0  0  1)  ( 0  0 -1)  ( 0  0  1)  ( 0  0 -1)  ( 0  0  1)  ( 0  0 -1)
Note: your k-points are not as symmetric as your crystal!

64 k-points: 4 x 4 x 4 Monkhorst-Pack grid
12 k-points in the irreducible part of the Brillouin zone
       k-points in crystal coordinates                weights
   0:     0.12500000   -0.12500000    0.12500000          4/64
   1:     0.12500000   -0.12500000    0.37500000          4/64
   2:     0.12500000    0.12500000    0.12500000          4/64
   3:     0.12500000    0.12500000    0.37500000          4/64
   4:     0.37500000   -0.37500000    0.12500000          4/64
   5:     0.37500000   -0.37500000    0.37500000          4/64
   6:     0.37500000   -0.12500000    0.12500000          8/64
   7:     0.37500000   -0.12500000    0.37500000          8/64
   8:     0.37500000    0.12500000    0.12500000          8/64
   9:     0.37500000    0.12500000    0.37500000          8/64
          ...
  11:     0.37500000    0.37500000    0.37500000          4/64

Wave functions: Plane wave expansion
  Cutoff energy: 300.000 eV
  Number of coefficients (min, max): 1664, 1722
  Pulay-stress correction: 0.000000 eV/Ang^3 (de/decut=0.000000)
  Using FFTW library
  ScaLapack parameters: grid=1x1, blocksize=None
  Wavefunction extrapolation:
    Improved wavefunction reuse through dual PAW basis 

Occupation numbers: Fermi-Dirac:
  width: 0.1000  # eV
 

Eigensolver
   Davidson(niter=2) 

Densities:
  Coarse grid: 12*12*80 grid
  Fine grid: 24*24*160 grid
  Total Charge: 0.000000 

Density mixing:
  Method: separate
  Backend: pulay
  Linear mixing parameter: 0.05
  old densities: 5
  Damping of long wavelength oscillations: 50 

Hamiltonian:
  XC and Coulomb potentials evaluated on a 24*24*160 grid
  Using the LDA Exchange-Correlation functional
  External potential:
    NoExternalPotential
 

Memory estimate:
  Process memory now: 286.70 MiB
  Calculator: 12.35 MiB
    Density: 4.97 MiB
      Arrays: 2.29 MiB
      Localized functions: 1.80 MiB
      Mixer: 0.88 MiB
    Hamiltonian: 1.53 MiB
      Arrays: 1.49 MiB
      XC: 0.00 MiB
      Poisson: 0.00 MiB
      vbar: 0.04 MiB
    Wavefunctions: 5.85 MiB
      Arrays psit_nG: 2.52 MiB
      Eigensolver: 0.35 MiB
      Projections: 0.04 MiB
      Projectors: 2.18 MiB
      PW-descriptor: 0.75 MiB

Total number of cores used: 1

Number of atoms: 2
Number of atomic orbitals: 8
Number of bands in calculation: 8
Number of valence electrons: 8
Bands to converge: occupied

... initialized

Initializing position-dependent things.

Density initialized from atomic densities
Creating initial wave functions:
  8 bands from LCAO basis set

                 
                 
                 
                 
       CC        
                 
                 
                 
                 

Positions:
   0 C      0.000000    0.000000    0.000000    ( 0.0000,  0.0000,  0.0000)
   1 C      0.000000    1.667901    0.000000    ( 0.0000,  0.0000,  0.0000)

Unit cell:
           periodic     x           y           z      points  spacing
  1. axis:    yes    2.888889    0.000000    0.000000    12     0.2085
  2. axis:    yes   -1.444444    2.501851    0.000000    12     0.2085
  3. axis:    yes    0.000000    0.000000   20.000000    80     0.2500

  Lengths:   2.888889   2.888889  20.000000
  Angles:   90.000000  90.000000 120.000000

Effective grid spacing dv^(1/3) = 0.2324

     iter     time        total  log10-change:
                         energy  eigst   dens
iter:   1 18:51:30   -16.109517
iter:   2 18:51:30   -16.117292  -1.27  -0.97
iter:   3 18:51:31   -15.991698  -1.86  -0.98
iter:   4 18:51:31   -15.996714  -2.15  -1.46
iter:   5 18:51:31   -15.996698  -3.56  -1.75
iter:   6 18:51:31   -15.984549  -2.81  -1.73
iter:   7 18:51:31   -15.984186  -3.75  -2.39
iter:   8 18:51:31   -15.984200c -4.97  -2.92
iter:   9 18:51:31   -15.984256c -5.59  -2.93
iter:  10 18:51:31   -15.984208c -5.73  -2.83
iter:  11 18:51:31   -15.984201c -6.56  -3.00
iter:  12 18:51:31   -15.984173c -4.74  -3.05
iter:  13 18:51:31   -15.984164c -6.06  -3.37
iter:  14 18:51:31   -15.984164c -6.57  -4.03c
iter:  15 18:51:31   -15.984163c -7.05  -3.96
iter:  16 18:51:32   -15.984165c -6.46  -4.24c
iter:  17 18:51:32   -15.984164c -6.91  -3.79
iter:  18 18:51:32   -15.984163c -7.79c -4.50c

Converged after 18 iterations.

Dipole moment: (-0.756607, 0.436827, 0.000000) |e|*Ang

Energy contributions relative to reference atoms: (reference = -2037.605076)

Kinetic:        -21.048213
Potential:      +14.942474
External:        +0.000000
XC:              -9.956778
Entropy (-ST):   -0.000507
Local:           +0.078607
--------------------------
Free energy:    -15.984417
Extrapolated:   -15.984163

Showing only first 2 kpts
 Kpt  Band  Eigenvalues  Occupancy
  0     2     -8.30918    2.00000
  0     3     -7.42306    2.00000
  0     4      0.05474    0.00000
  0     5      0.94113    0.00000

  1     2     -8.31611    2.00000
  1     3     -7.42491    2.00000
  1     4      0.05227    0.00000
  1     5      0.95584    0.00000


Fermi level: -4.11633

Gap: 1.324 eV
Transition (v -> c):
  (s=0, k=11, n=3, [0.38, 0.38, 0.38]) -> (s=0, k=11, n=4, [0.38, 0.38, 0.38])
Writing to graphene-2.9.gpw (mode='')

Timing:                              incl.     excl.
-----------------------------------------------------------
Hamiltonian:                         0.010     0.000   0.0% |
 Atomic:                             0.006     0.000   0.0% |
  XC Correction:                     0.005     0.005   0.3% |
 Calculate atomic Hamiltonians:      0.001     0.001   0.1% |
 Communicate:                        0.000     0.000   0.0% |
 Initialize Hamiltonian:             0.000     0.000   0.0% |
 Poisson:                            0.000     0.000   0.0% |
 XC 3D grid:                         0.003     0.003   0.2% |
LCAO initialization:                 0.052     0.005   0.3% |
 LCAO eigensolver:                   0.013     0.000   0.0% |
  Calculate projections:             0.000     0.000   0.0% |
  DenseAtomicCorrection:             0.000     0.000   0.0% |
  Distribute overlap matrix:         0.000     0.000   0.0% |
  Orbital Layouts:                   0.000     0.000   0.0% |
  Potential matrix:                  0.011     0.011   0.7% |
  Sum over cells:                    0.001     0.001   0.1% |
 LCAO to grid:                       0.018     0.018   1.1% |
 Set positions (LCAO WFS):           0.016     0.002   0.2% |
  Basic WFS set positions:           0.000     0.000   0.0% |
  Basis functions set positions:     0.000     0.000   0.0% |
  P tci:                             0.005     0.005   0.3% |
  ST tci:                            0.006     0.006   0.4% |
  mktci:                             0.002     0.002   0.1% |
PWDescriptor:                        0.002     0.002   0.1% |
SCF-cycle:                           1.440     0.017   1.1% |
 Davidson:                           1.098     0.277  17.5% |------|
  Apply H:                           0.149     0.143   9.1% |---|
   HMM T:                            0.006     0.006   0.4% |
  Subspace diag:                     0.200     0.004   0.3% |
   calc_h_matrix:                    0.167     0.018   1.2% |
    Apply H:                         0.149     0.142   9.0% |---|
     HMM T:                          0.007     0.007   0.4% |
   diagonalize:                      0.009     0.009   0.6% |
   rotate_psi:                       0.019     0.019   1.2% |
  calc. matrices:                    0.413     0.116   7.3% |--|
   Apply H:                          0.297     0.284  18.0% |------|
    HMM T:                           0.013     0.013   0.8% |
  diagonalize:                       0.024     0.024   1.5% ||
  rotate_psi:                        0.035     0.035   2.2% ||
 Density:                            0.143     0.000   0.0% |
  Atomic density matrices:           0.006     0.006   0.4% |
  Mix:                               0.059     0.059   3.7% ||
  Multipole moments:                 0.001     0.001   0.0% |
  Pseudo density:                    0.077     0.067   4.2% |-|
   Symmetrize density:               0.010     0.010   0.6% |
 Hamiltonian:                        0.178     0.003   0.2% |
  Atomic:                            0.098     0.003   0.2% |
   XC Correction:                    0.094     0.094   6.0% |-|
  Calculate atomic Hamiltonians:     0.015     0.015   0.9% |
  Communicate:                       0.000     0.000   0.0% |
  Poisson:                           0.002     0.002   0.2% |
  XC 3D grid:                        0.060     0.060   3.8% |-|
 Orthonormalize:                     0.004     0.000   0.0% |
  calc_s_matrix:                     0.001     0.001   0.0% |
  inverse-cholesky:                  0.000     0.000   0.0% |
  projections:                       0.002     0.002   0.1% |
  rotate_psi_s:                      0.001     0.001   0.0% |
Set symmetry:                        0.003     0.003   0.2% |
Other:                               0.071     0.071   4.5% |-|
-----------------------------------------------------------
Total:                                         1.578 100.0%

Memory usage: 286.70 MiB
Date: Thu May  4 18:51:32 2023
