
  ___ ___ ___ _ _ _  
 |   |   |_  | | | | 
 | | | | | . | | | | 
 |__ |  _|___|_____|  22.8.0
 |___|_|             

User:   austin@austinhoustonmacm1.nomads.utk.edu
Date:   Thu May  4 18:51:32 2023
Arch:   arm64
Pid:    25491
CWD:    /Users/austin/Desktop/dft_class/final_project
Python: 3.8.16
gpaw:   /Users/austin/tensorflow_env/env/lib/python3.8/site-packages/gpaw
_gpaw:  /Users/austin/tensorflow_env/env/lib/python3.8/site-packages/
        _gpaw.cpython-38-darwin.so
ase:    /Users/austin/tensorflow_env/env/lib/python3.8/site-packages/ase (version 3.22.1)
numpy:  /Users/austin/tensorflow_env/env/lib/python3.8/site-packages/numpy (version 1.23.2)
scipy:  /Users/austin/tensorflow_env/env/lib/python3.8/site-packages/scipy (version 1.9.1)
libxc:  6.1.0
units:  Angstrom and eV
cores: 1
OpenMP: False
OMP_NUM_THREADS: 1

Input parameters:
  kpts: [4 4 4]
  mode: {ecut: 300.0,
         name: pw}

System changes: positions, numbers, cell, pbc, initial_charges, initial_magmoms 

Initialize ...

species:
  C:
    name: Carbon
    id: d60576a1f549371a163e72552ca58787
    Z: 6.0
    valence: 4
    core: 2
    charge: 0.0
    file: /Users/austin/gpaw-setups-0.9.20000/C.LDA.gz
    compensation charges: {type: gauss,
                           rc: 0.20,
                           lmax: 2}
    cutoffs: {filter: 1.14,
              core: 1.14}
    valence states:
      #              energy  rcut
      - 2s(2.00)   -13.639   0.635
      - 2p(2.00)    -5.414   0.635
      -  s          13.573   0.635
      -  p          21.797   0.635
      -  d           0.000   0.635
  
    # Using partial waves for C as LCAO basis

Reference energy: -2037.605076  # eV

Spin-paired calculation

Convergence criteria:
 Maximum [total energy] change in last 3 cyles: 0.0005 eV / electron
 Maximum integral of absolute [dens]ity change: 0.0001 electrons / valence electron
 Maximum integral of absolute [eigenst]ate change: 4e-08 eV^2 / valence electron
 Maximum number of scf [iter]ations: 333
 (Square brackets indicate name in SCF output, whereas a 'c' in
 the SCF output indicates the quantity has converged.)

Symmetries present (total): 12

  ( 1  1  0)  ( 1  1  0)  ( 1  0  0)  ( 1  0  0)  ( 0  1  0)  ( 0  1  0)
  ( 0 -1  0)  ( 0 -1  0)  ( 0  1  0)  ( 0  1  0)  (-1 -1  0)  (-1 -1  0)
  ( 0  0  1)  ( 0  0 -1)  ( 0  0  1)  ( 0  0 -1)  ( 0  0  1)  ( 0  0 -1)

  ( 0 -1  0)  ( 0 -1  0)  (-1  0  0)  (-1  0  0)  (-1 -1  0)  (-1 -1  0)
  (-1  0  0)  (-1  0  0)  ( 1  1  0)  ( 1  1  0)  ( 1  0  0)  ( 1  0  0)
  ( 0  0  1)  ( 0  0 -1)  ( 0  0  1)  ( 0  0 -1)  ( 0  0  1)  ( 0  0 -1)
Note: your k-points are not as symmetric as your crystal!

64 k-points: 4 x 4 x 4 Monkhorst-Pack grid
12 k-points in the irreducible part of the Brillouin zone
       k-points in crystal coordinates                weights
   0:     0.12500000   -0.12500000    0.12500000          4/64
   1:     0.12500000   -0.12500000    0.37500000          4/64
   2:     0.12500000    0.12500000    0.12500000          4/64
   3:     0.12500000    0.12500000    0.37500000          4/64
   4:     0.37500000   -0.37500000    0.12500000          4/64
   5:     0.37500000   -0.37500000    0.37500000          4/64
   6:     0.37500000   -0.12500000    0.12500000          8/64
   7:     0.37500000   -0.12500000    0.37500000          8/64
   8:     0.37500000    0.12500000    0.12500000          8/64
   9:     0.37500000    0.12500000    0.37500000          8/64
          ...
  11:     0.37500000    0.37500000    0.37500000          4/64

Wave functions: Plane wave expansion
  Cutoff energy: 300.000 eV
  Number of coefficients (min, max): 1831, 1848
  Pulay-stress correction: 0.000000 eV/Ang^3 (de/decut=0.000000)
  Using FFTW library
  ScaLapack parameters: grid=1x1, blocksize=None
  Wavefunction extrapolation:
    Improved wavefunction reuse through dual PAW basis 

Occupation numbers: Fermi-Dirac:
  width: 0.1000  # eV
 

Eigensolver
   Davidson(niter=2) 

Densities:
  Coarse grid: 12*12*80 grid
  Fine grid: 24*24*160 grid
  Total Charge: 0.000000 

Density mixing:
  Method: separate
  Backend: pulay
  Linear mixing parameter: 0.05
  old densities: 5
  Damping of long wavelength oscillations: 50 

Hamiltonian:
  XC and Coulomb potentials evaluated on a 24*24*160 grid
  Using the LDA Exchange-Correlation functional
  External potential:
    NoExternalPotential
 

Memory estimate:
  Process memory now: 286.70 MiB
  Calculator: 12.89 MiB
    Density: 5.10 MiB
      Arrays: 2.29 MiB
      Localized functions: 1.93 MiB
      Mixer: 0.88 MiB
    Hamiltonian: 1.53 MiB
      Arrays: 1.49 MiB
      XC: 0.00 MiB
      Poisson: 0.00 MiB
      vbar: 0.04 MiB
    Wavefunctions: 6.26 MiB
      Arrays psit_nG: 2.71 MiB
      Eigensolver: 0.38 MiB
      Projections: 0.04 MiB
      Projectors: 2.36 MiB
      PW-descriptor: 0.78 MiB

Total number of cores used: 1

Number of atoms: 2
Number of atomic orbitals: 8
Number of bands in calculation: 8
Number of valence electrons: 8
Bands to converge: occupied

... initialized

Initializing position-dependent things.

Density initialized from atomic densities
Creating initial wave functions:
  8 bands from LCAO basis set

                  
                  
                  
                  
         C        
       C          
                  
                  
                  
                  

Positions:
   0 C      0.000000    0.000000    0.000000    ( 0.0000,  0.0000,  0.0000)
   1 C      0.000000    1.732051    0.000000    ( 0.0000,  0.0000,  0.0000)

Unit cell:
           periodic     x           y           z      points  spacing
  1. axis:    yes    3.000000    0.000000    0.000000    12     0.2165
  2. axis:    yes   -1.500000    2.598076    0.000000    12     0.2165
  3. axis:    yes    0.000000    0.000000   20.000000    80     0.2500

  Lengths:   3.000000   3.000000  20.000000
  Angles:   90.000000  90.000000 120.000000

Effective grid spacing dv^(1/3) = 0.2383

     iter     time        total  log10-change:
                         energy  eigst   dens
iter:   1 18:51:32   -14.823413
iter:   2 18:51:32   -14.838373  -1.27  -1.01
iter:   3 18:51:32   -14.782189  -2.28  -1.02
iter:   4 18:51:32   -14.760828  -2.36  -1.26
iter:   5 18:51:32   -14.759247  -3.90  -2.10
iter:   6 18:51:32   -14.758834c -3.35  -2.31
iter:   7 18:51:32   -14.758682c -4.90  -2.57
iter:   8 18:51:32   -14.758634c -5.43  -2.69
iter:   9 18:51:33   -14.758545c -4.93  -2.79
iter:  10 18:51:33   -14.758546c -5.12  -3.25
iter:  11 18:51:33   -14.758562c -5.03  -3.38
iter:  12 18:51:33   -14.758538c -5.54  -3.12
iter:  13 18:51:33   -14.758538c -6.72  -4.35c
iter:  14 18:51:33   -14.758538c -7.70c -4.89c

Converged after 14 iterations.

Dipole moment: (-0.719221, 0.415242, 0.000000) |e|*Ang

Energy contributions relative to reference atoms: (reference = -2037.605076)

Kinetic:        -25.089716
Potential:      +18.470970
External:        +0.000000
XC:              -8.225658
Entropy (-ST):   -0.000895
Local:           +0.086313
--------------------------
Free energy:    -14.758986
Extrapolated:   -14.758538

Showing only first 2 kpts
 Kpt  Band  Eigenvalues  Occupancy
  0     2     -8.50210    2.00000
  0     3     -7.55781    2.00000
  0     4     -1.59691    0.00000
  0     5      0.91336    0.00000

  1     2     -8.50403    2.00000
  1     3     -7.55677    2.00000
  1     4     -1.59704    0.00000
  1     5      0.91018    0.00000


Fermi level: -4.36465

Gap: 1.188 eV
Transition (v -> c):
  (s=0, k=10, n=3, [0.38, 0.38, 0.12]) -> (s=0, k=11, n=4, [0.38, 0.38, 0.38])
Writing to graphene-3.0.gpw (mode='')

Timing:                              incl.     excl.
-----------------------------------------------------------
Hamiltonian:                         0.011     0.000   0.0% |
 Atomic:                             0.006     0.000   0.0% |
  XC Correction:                     0.005     0.005   0.0% |
 Calculate atomic Hamiltonians:      0.001     0.001   0.0% |
 Communicate:                        0.000     0.000   0.0% |
 Initialize Hamiltonian:             0.000     0.000   0.0% |
 Poisson:                            0.000     0.000   0.0% |
 XC 3D grid:                         0.004     0.004   0.0% |
LCAO initialization:                 0.050     0.005   0.0% |
 LCAO eigensolver:                   0.012     0.000   0.0% |
  Calculate projections:             0.000     0.000   0.0% |
  DenseAtomicCorrection:             0.000     0.000   0.0% |
  Distribute overlap matrix:         0.000     0.000   0.0% |
  Orbital Layouts:                   0.000     0.000   0.0% |
  Potential matrix:                  0.009     0.009   0.0% |
  Sum over cells:                    0.001     0.001   0.0% |
 LCAO to grid:                       0.017     0.017   0.0% |
 Set positions (LCAO WFS):           0.016     0.002   0.0% |
  Basic WFS set positions:           0.000     0.000   0.0% |
  Basis functions set positions:     0.000     0.000   0.0% |
  P tci:                             0.005     0.005   0.0% |
  ST tci:                            0.006     0.006   0.0% |
  mktci:                             0.002     0.002   0.0% |
PWDescriptor:                        0.003     0.003   0.0% |
SCF-cycle:                           1.080     0.013   0.0% |
 Davidson:                           0.835     0.203   0.0% |
  Apply H:                           0.114     0.109   0.0% |
   HMM T:                            0.005     0.005   0.0% |
  Subspace diag:                     0.155     0.003   0.0% |
   calc_h_matrix:                    0.129     0.014   0.0% |
    Apply H:                         0.115     0.110   0.0% |
     HMM T:                          0.006     0.006   0.0% |
   diagonalize:                      0.007     0.007   0.0% |
   rotate_psi:                       0.016     0.016   0.0% |
  calc. matrices:                    0.317     0.087   0.0% |
   Apply H:                          0.230     0.220   0.0% |
    HMM T:                           0.010     0.010   0.0% |
  diagonalize:                       0.018     0.018   0.0% |
  rotate_psi:                        0.029     0.029   0.0% |
 Density:                            0.094     0.000   0.0% |
  Atomic density matrices:           0.005     0.005   0.0% |
  Mix:                               0.030     0.030   0.0% |
  Multipole moments:                 0.001     0.001   0.0% |
  Pseudo density:                    0.059     0.051   0.0% |
   Symmetrize density:               0.008     0.008   0.0% |
 Hamiltonian:                        0.134     0.002   0.0% |
  Atomic:                            0.073     0.003   0.0% |
   XC Correction:                    0.070     0.070   0.0% |
  Calculate atomic Hamiltonians:     0.012     0.012   0.0% |
  Communicate:                       0.000     0.000   0.0% |
  Poisson:                           0.002     0.002   0.0% |
  XC 3D grid:                        0.045     0.045   0.0% |
 Orthonormalize:                     0.004     0.000   0.0% |
  calc_s_matrix:                     0.001     0.001   0.0% |
  inverse-cholesky:                  0.000     0.000   0.0% |
  projections:                       0.002     0.002   0.0% |
  rotate_psi_s:                      0.001     0.001   0.0% |
Set symmetry:                        0.003     0.003   0.0% |
Other:                           62146.243 62146.243 100.0% |---------------------------------------|
-----------------------------------------------------------
Total:                                     62147.389 100.0%

Memory usage: 4.32 GiB
Date: Fri May  5 11:07:19 2023
