
  ___ ___ ___ _ _ _  
 |   |   |_  | | | | 
 | | | | | . | | | | 
 |__ |  _|___|_____|  22.8.0
 |___|_|             

User:   austin@austinhoustonmacm1.nomads.utk.edu
Date:   Thu May  4 18:51:24 2023
Arch:   arm64
Pid:    25491
CWD:    /Users/austin/Desktop/dft_class/final_project
Python: 3.8.16
gpaw:   /Users/austin/tensorflow_env/env/lib/python3.8/site-packages/gpaw
_gpaw:  /Users/austin/tensorflow_env/env/lib/python3.8/site-packages/
        _gpaw.cpython-38-darwin.so
ase:    /Users/austin/tensorflow_env/env/lib/python3.8/site-packages/ase (version 3.22.1)
numpy:  /Users/austin/tensorflow_env/env/lib/python3.8/site-packages/numpy (version 1.23.2)
scipy:  /Users/austin/tensorflow_env/env/lib/python3.8/site-packages/scipy (version 1.9.1)
libxc:  6.1.0
units:  Angstrom and eV
cores: 1
OpenMP: False
OMP_NUM_THREADS: 1

Input parameters:
  kpts: [4 4 4]
  mode: {ecut: 300.0,
         name: pw}

System changes: positions, numbers, cell, pbc, initial_charges, initial_magmoms 

Initialize ...

species:
  C:
    name: Carbon
    id: d60576a1f549371a163e72552ca58787
    Z: 6.0
    valence: 4
    core: 2
    charge: 0.0
    file: /Users/austin/gpaw-setups-0.9.20000/C.LDA.gz
    compensation charges: {type: gauss,
                           rc: 0.20,
                           lmax: 2}
    cutoffs: {filter: 1.14,
              core: 1.14}
    valence states:
      #              energy  rcut
      - 2s(2.00)   -13.639   0.635
      - 2p(2.00)    -5.414   0.635
      -  s          13.573   0.635
      -  p          21.797   0.635
      -  d           0.000   0.635
  
    # Using partial waves for C as LCAO basis

Reference energy: -2037.605076  # eV

Spin-paired calculation

Convergence criteria:
 Maximum [total energy] change in last 3 cyles: 0.0005 eV / electron
 Maximum integral of absolute [dens]ity change: 0.0001 electrons / valence electron
 Maximum integral of absolute [eigenst]ate change: 4e-08 eV^2 / valence electron
 Maximum number of scf [iter]ations: 333
 (Square brackets indicate name in SCF output, whereas a 'c' in
 the SCF output indicates the quantity has converged.)

Symmetries present (total): 12

  ( 1  1  0)  ( 1  1  0)  ( 1  0  0)  ( 1  0  0)  ( 0  1  0)  ( 0  1  0)
  ( 0 -1  0)  ( 0 -1  0)  ( 0  1  0)  ( 0  1  0)  (-1 -1  0)  (-1 -1  0)
  ( 0  0  1)  ( 0  0 -1)  ( 0  0  1)  ( 0  0 -1)  ( 0  0  1)  ( 0  0 -1)

  ( 0 -1  0)  ( 0 -1  0)  (-1  0  0)  (-1  0  0)  (-1 -1  0)  (-1 -1  0)
  (-1  0  0)  (-1  0  0)  ( 1  1  0)  ( 1  1  0)  ( 1  0  0)  ( 1  0  0)
  ( 0  0  1)  ( 0  0 -1)  ( 0  0  1)  ( 0  0 -1)  ( 0  0  1)  ( 0  0 -1)
Note: your k-points are not as symmetric as your crystal!

64 k-points: 4 x 4 x 4 Monkhorst-Pack grid
12 k-points in the irreducible part of the Brillouin zone
       k-points in crystal coordinates                weights
   0:     0.12500000   -0.12500000    0.12500000          4/64
   1:     0.12500000   -0.12500000    0.37500000          4/64
   2:     0.12500000    0.12500000    0.12500000          4/64
   3:     0.12500000    0.12500000    0.37500000          4/64
   4:     0.37500000   -0.37500000    0.12500000          4/64
   5:     0.37500000   -0.37500000    0.37500000          4/64
   6:     0.37500000   -0.12500000    0.12500000          8/64
   7:     0.37500000   -0.12500000    0.37500000          8/64
   8:     0.37500000    0.12500000    0.12500000          8/64
   9:     0.37500000    0.12500000    0.37500000          8/64
          ...
  11:     0.37500000    0.37500000    0.37500000          4/64

Wave functions: Plane wave expansion
  Cutoff energy: 300.000 eV
  Number of coefficients (min, max): 1105, 1132
  Pulay-stress correction: 0.000000 eV/Ang^3 (de/decut=0.000000)
  Using FFTW library
  ScaLapack parameters: grid=1x1, blocksize=None
  Wavefunction extrapolation:
    Improved wavefunction reuse through dual PAW basis 

Occupation numbers: Fermi-Dirac:
  width: 0.1000  # eV
 

Eigensolver
   Davidson(niter=2) 

Densities:
  Coarse grid: 10*10*80 grid
  Fine grid: 20*20*160 grid
  Total Charge: 0.000000 

Density mixing:
  Method: separate
  Backend: pulay
  Linear mixing parameter: 0.05
  old densities: 5
  Damping of long wavelength oscillations: 50 

Hamiltonian:
  XC and Coulomb potentials evaluated on a 20*20*160 grid
  Using the LDA Exchange-Correlation functional
  External potential:
    NoExternalPotential
 

Memory estimate:
  Process memory now: 286.70 MiB
  Calculator: 8.31 MiB
    Density: 3.38 MiB
      Arrays: 1.59 MiB
      Localized functions: 1.18 MiB
      Mixer: 0.61 MiB
    Hamiltonian: 1.06 MiB
      Arrays: 1.04 MiB
      XC: 0.00 MiB
      Poisson: 0.00 MiB
      vbar: 0.02 MiB
    Wavefunctions: 3.87 MiB
      Arrays psit_nG: 1.66 MiB
      Eigensolver: 0.23 MiB
      Projections: 0.04 MiB
      Projectors: 1.43 MiB
      PW-descriptor: 0.51 MiB

Total number of cores used: 1

Number of atoms: 2
Number of atomic orbitals: 8
Number of bands in calculation: 8
Number of valence electrons: 8
Bands to converge: occupied

... initialized

Initializing position-dependent things.

Density initialized from atomic densities
Creating initial wave functions:
  8 bands from LCAO basis set

                 
                 
                 
                 
       CC        
                 
                 
                 
                 

Positions:
   0 C      0.000000    0.000000    0.000000    ( 0.0000,  0.0000,  0.0000)
   1 C      0.000000    1.347151    0.000000    ( 0.0000,  0.0000,  0.0000)

Unit cell:
           periodic     x           y           z      points  spacing
  1. axis:    yes    2.333333    0.000000    0.000000    10     0.2021
  2. axis:    yes   -1.166667    2.020726    0.000000    10     0.2021
  3. axis:    yes    0.000000    0.000000   20.000000    80     0.2500

  Lengths:   2.333333   2.333333  20.000000
  Angles:   90.000000  90.000000 120.000000

Effective grid spacing dv^(1/3) = 0.2276

     iter     time        total  log10-change:
                         energy  eigst   dens
iter:   1 18:51:24   -20.086809
iter:   2 18:51:24   -19.912281  -0.76  -0.72
iter:   3 18:51:24   -19.322693  -0.23  -0.74
iter:   4 18:51:24   -18.630070  -1.61  -0.88
iter:   5 18:51:24   -18.639711  -2.98  -1.17
iter:   6 18:51:24   -18.415329  -1.29  -1.17
iter:   7 18:51:24   -18.415561  -2.84  -2.24
iter:   8 18:51:24   -18.413111c -3.58  -2.21
iter:   9 18:51:24   -18.414404c -3.44  -2.70
iter:  10 18:51:24   -18.413155c -4.05  -2.34
iter:  11 18:51:25   -18.413133c -5.40  -2.87
iter:  12 18:51:25   -18.413078c -5.23  -2.95
iter:  13 18:51:25   -18.413072c -5.65  -3.43
iter:  14 18:51:25   -18.413072c -6.90  -4.42c
iter:  15 18:51:25   -18.413072c -7.50c -4.61c

Converged after 15 iterations.

Dipole moment: (-0.926333, 0.534818, -0.000000) |e|*Ang

Energy contributions relative to reference atoms: (reference = -2037.605076)

Kinetic:        +29.908518
Potential:      -25.455737
External:        +0.000000
XC:             -22.953162
Entropy (-ST):   -0.000009
Local:           +0.087314
--------------------------
Free energy:    -18.413076
Extrapolated:   -18.413072

Showing only first 2 kpts
 Kpt  Band  Eigenvalues  Occupancy
  0     2     -6.53725    2.00000
  0     3     -5.90904    2.00000
  0     4      1.22628    0.00000
  0     5      2.12120    0.00000

  1     2     -6.54763    2.00000
  1     3     -5.92062    2.00000
  1     4      1.22781    0.00000
  1     5      2.05809    0.00000


Fermi level: -2.18363

Gap: 2.228 eV
Transition (v -> c):
  (s=0, k=10, n=3, [0.38, 0.38, 0.12]) -> (s=0, k=11, n=4, [0.38, 0.38, 0.38])
Writing to graphene-2.3.gpw (mode='')

Timing:                              incl.     excl.
-----------------------------------------------------------
Hamiltonian:                         0.009     0.000   0.0% |
 Atomic:                             0.006     0.000   0.0% |
  XC Correction:                     0.005     0.005   0.5% |
 Calculate atomic Hamiltonians:      0.001     0.001   0.1% |
 Communicate:                        0.000     0.000   0.0% |
 Initialize Hamiltonian:             0.000     0.000   0.0% |
 Poisson:                            0.000     0.000   0.0% |
 XC 3D grid:                         0.002     0.002   0.2% |
LCAO initialization:                 0.064     0.005   0.5% |
 LCAO eigensolver:                   0.020     0.000   0.0% |
  Calculate projections:             0.000     0.000   0.0% |
  DenseAtomicCorrection:             0.000     0.000   0.0% |
  Distribute overlap matrix:         0.000     0.000   0.0% |
  Orbital Layouts:                   0.000     0.000   0.0% |
  Potential matrix:                  0.017     0.017   1.7% ||
  Sum over cells:                    0.001     0.001   0.1% |
 LCAO to grid:                       0.015     0.015   1.5% ||
 Set positions (LCAO WFS):           0.024     0.004   0.4% |
  Basic WFS set positions:           0.000     0.000   0.0% |
  Basis functions set positions:     0.000     0.000   0.0% |
  P tci:                             0.007     0.007   0.6% |
  ST tci:                            0.010     0.010   0.9% |
  mktci:                             0.003     0.003   0.3% |
PWDescriptor:                        0.002     0.002   0.2% |
SCF-cycle:                           0.880     0.027   2.7% ||
 Davidson:                           0.656     0.154  15.2% |-----|
  Apply H:                           0.088     0.083   8.2% |--|
   HMM T:                            0.004     0.004   0.4% |
  Subspace diag:                     0.122     0.003   0.3% |
   calc_h_matrix:                    0.101     0.012   1.2% |
    Apply H:                         0.089     0.084   8.3% |--|
     HMM T:                          0.005     0.005   0.5% |
   diagonalize:                      0.007     0.007   0.7% |
   rotate_psi:                       0.011     0.011   1.1% |
  calc. matrices:                    0.253     0.076   7.5% |--|
   Apply H:                          0.177     0.168  16.5% |------|
    HMM T:                           0.009     0.009   0.9% |
  diagonalize:                       0.019     0.019   1.8% ||
  rotate_psi:                        0.020     0.020   2.0% ||
 Density:                            0.069     0.000   0.0% |
  Atomic density matrices:           0.005     0.005   0.5% |
  Mix:                               0.019     0.019   1.8% ||
  Multipole moments:                 0.001     0.001   0.1% |
  Pseudo density:                    0.045     0.039   3.9% |-|
   Symmetrize density:               0.006     0.006   0.6% |
 Hamiltonian:                        0.124     0.002   0.2% |
  Atomic:                            0.079     0.003   0.2% |
   XC Correction:                    0.076     0.076   7.5% |--|
  Calculate atomic Hamiltonians:     0.009     0.009   0.8% |
  Communicate:                       0.000     0.000   0.0% |
  Poisson:                           0.001     0.001   0.1% |
  XC 3D grid:                        0.033     0.033   3.3% ||
 Orthonormalize:                     0.003     0.000   0.0% |
  calc_s_matrix:                     0.001     0.001   0.1% |
  inverse-cholesky:                  0.000     0.000   0.0% |
  projections:                       0.002     0.002   0.2% |
  rotate_psi_s:                      0.000     0.000   0.0% |
Set symmetry:                        0.003     0.003   0.3% |
Other:                               0.060     0.060   5.9% |-|
-----------------------------------------------------------
Total:                                         1.016 100.0%

Memory usage: 286.70 MiB
Date: Thu May  4 18:51:25 2023
