
  ___ ___ ___ _ _ _  
 |   |   |_  | | | | 
 | | | | | . | | | | 
 |__ |  _|___|_____|  22.8.0
 |___|_|             

User:   austin@austinhoustonmacm1.nomads.utk.edu
Date:   Thu May  4 18:41:37 2023
Arch:   arm64
Pid:    25491
CWD:    /Users/austin/Desktop/dft_class/final_project
Python: 3.8.16
gpaw:   /Users/austin/tensorflow_env/env/lib/python3.8/site-packages/gpaw
_gpaw:  /Users/austin/tensorflow_env/env/lib/python3.8/site-packages/
        _gpaw.cpython-38-darwin.so
ase:    /Users/austin/tensorflow_env/env/lib/python3.8/site-packages/ase (version 3.22.1)
numpy:  /Users/austin/tensorflow_env/env/lib/python3.8/site-packages/numpy (version 1.23.2)
scipy:  /Users/austin/tensorflow_env/env/lib/python3.8/site-packages/scipy (version 1.9.1)
libxc:  6.1.0
units:  Angstrom and eV
cores: 1
OpenMP: False
OMP_NUM_THREADS: 1

Input parameters:
  charge: -1
  h: 0.2
  occupations: {fixmagmom: True,
                name: fermi-dirac,
                width: 0.0}
  setups: {0: fch1s}
  spinpol: True
  xc: PBE

System changes: positions, numbers, cell, pbc, initial_charges, initial_magmoms 

Initialize ...

species:
  C:  # (1.0 core hole)
    name: Carbon
    id: f4944c0544631dfc06af2b77069fd044
    Z: 6.0
    valence: 4
    core: 1.0
    charge: 1.0
    file: ./C.fch1s.PBE
    compensation charges: {type: gauss,
                           rc: 0.20,
                           lmax: 2}
    cutoffs: {filter: 1.14,
              core: 1.01}
    valence states:
      #              energy  rcut
      - 2s(2.00)   -29.911   0.635
      - 2p(2.00)   -21.336   0.635
      -  s          -2.700   0.635
      -  p           5.875   0.635
      -  d           0.000   0.635
  
    # Using partial waves for C as LCAO basis

  C:
    name: Carbon
    id: 4aa54d4b901d75f77cc0ea3eec22967b
    Z: 6.0
    valence: 4
    core: 2
    charge: 0.0
    file: /Users/austin/gpaw-setups-0.9.20000/C.PBE.gz
    compensation charges: {type: gauss,
                           rc: 0.20,
                           lmax: 2}
    cutoffs: {filter: 1.14,
              core: 1.14}
    valence states:
      #              energy  rcut
      - 2s(2.00)   -13.751   0.635
      - 2p(2.00)    -5.284   0.635
      -  s          13.461   0.635
      -  p          21.927   0.635
      -  d           0.000   0.635
  
    # Using partial waves for C as LCAO basis

Reference energy: -3806.140580  # eV

Spin-polarized calculation.
Magnetic moment: 1.000000

Convergence criteria:
 Maximum [total energy] change in last 3 cyles: 0.0005 eV / electron
 Maximum integral of absolute [dens]ity change: 0.0001 electrons / valence electron
 Maximum integral of absolute [eigenst]ate change: 4e-08 eV^2 / valence electron
 Maximum number of scf [iter]ations: 333
 (Square brackets indicate name in SCF output, whereas a 'c' in
 the SCF output indicates the quantity has converged.)

Symmetries present (total): 4

  ( 1  0  0)  ( 1  0  0)  (-1  0  0)  (-1  0  0)
  ( 0  1  0)  ( 0  1  0)  ( 0  1  0)  ( 0  1  0)
  ( 0  0  1)  ( 0  0 -1)  ( 0  0  1)  ( 0  0 -1)

1 k-point (Gamma)
1 k-point in the irreducible part of the Brillouin zone
       k-points in crystal coordinates                weights
   0:     0.00000000    0.00000000    0.00000000          1/1

Wave functions: Uniform real-space grid
  Kinetic energy operator: 6*3+1=19 point O(h^6) finite-difference Laplacian
  ScaLapack parameters: grid=1x1, blocksize=None
  Wavefunction extrapolation:
    Improved wavefunction reuse through dual PAW basis 

Occupation numbers: Fixed magnetic moment: 1.000
# Zero width 

Eigensolver
   Davidson(niter=2) 

Densities:
  Coarse grid: 12*20*40 grid
  Fine grid: 24*40*80 grid
  Total Charge: 0.000000 

Density mixing:
  Method: difference
  Backend: pulay
  Linear mixing parameter: 0.05
  old densities: 5
  Damping of long wavelength oscillations: 50 

Hamiltonian:
  XC and Coulomb potentials evaluated on a 24*40*80 grid
  Using the PBE Exchange-Correlation functional
  Interpolation: tri-quintic (5. degree polynomial)
  Poisson solver: FastPoissonSolver using
    Stencil: 6*3+1=19 point O(h^6) finite-difference Laplacian
    FFT axes: [0, 1, 2]
    FST axes: []
 

XC parameters: PBE with 2 nearest neighbor stencil

Memory estimate:
  Process memory now: 249.80 MiB
  Calculator: 11.86 MiB
    Density: 5.80 MiB
      Arrays: 2.56 MiB
      Localized functions: 2.21 MiB
      Mixer: 1.03 MiB
    Hamiltonian: 2.08 MiB
      Arrays: 1.90 MiB
      XC: 0.00 MiB
      Poisson: 0.00 MiB
      vbar: 0.18 MiB
    Wavefunctions: 3.98 MiB
      Arrays psit_nG: 2.20 MiB
      Eigensolver: 1.48 MiB
      Projections: 0.01 MiB
      Projectors: 0.29 MiB

Total number of cores used: 1

Number of atoms: 4
Number of atomic orbitals: 16
Number of bands in calculation: 15
Number of valence electrons: 17
Bands to converge: occupied

... initialized

Initializing position-dependent things.

Density initialized from atomic densities
Creating initial wave functions:
  15 bands from LCAO basis set

    .-----.  
   /|     |  
  / |     |  
 *  |     |  
 |  |     |  
 |  | C   |  
 |  |     |  
 |C |C    |  
 C  |     |  
 |  |     |  
 |  .-----.  
 | /     /   
 |/     /    
 *-----*     

Positions:
   0 C      0.000000    0.000000    4.000000    ( 0.0000,  0.0000,  1.0000)
   1 C      0.000000    1.408735    4.000000    ( 0.0000,  0.0000,  0.0000)
   2 C      1.220000    2.113102    4.000000    ( 0.0000,  0.0000,  0.0000)
   3 C      1.220000    3.521837    4.000000    ( 0.0000,  0.0000,  0.0000)

Unit cell:
           periodic     x           y           z      points  spacing
  1. axis:    yes    2.440000    0.000000    0.000000    12     0.2033
  2. axis:    yes    0.000000    4.226204    0.000000    20     0.2113
  3. axis:    yes    0.000000    0.000000    8.000000    40     0.2000

  Lengths:   2.440000   4.226204   8.000000
  Angles:   90.000000  90.000000  90.000000

Effective grid spacing dv^(1/3) = 0.2048

     iter     time        total  log10-change:  magmom
                         energy  eigst   dens
iter:   1 18:41:38   -51.804108                  +1.0573
iter:   2 18:41:38   -52.007234  +0.14  -0.75    +1.0172
iter:   3 18:41:38   -50.570129  +0.31  -0.78    +0.9961
iter:   4 18:41:38   -50.567210  -0.49  -1.03    +0.9991
iter:   5 18:41:38   -50.636143  -0.26  -1.06    +1.0003
iter:   6 18:41:38   -50.629081  -0.40  -1.51    +0.9998
iter:   7 18:41:39   -50.537851  -1.08  -1.54    +1.0001
iter:   8 18:41:39   -50.525531  -1.23  -1.74    +1.0001
iter:   9 18:41:39   -50.525686  -1.84  -2.19    +1.0000
iter:  10 18:41:39   -50.521441c -2.03  -2.12    +1.0000
iter:  11 18:41:39   -50.520246c -2.42  -2.45    +1.0000
iter:  12 18:41:39   -50.520007c -3.41  -2.81    +1.0000
iter:  13 18:41:39   -50.520007c -3.75  -2.99    +1.0000
iter:  14 18:41:39   -50.519997c -4.28  -3.05    +1.0000
iter:  15 18:41:40   -50.519958c -4.45  -3.08    +1.0000
iter:  16 18:41:40   -50.519964c -4.84  -3.17    +1.0000
iter:  17 18:41:40   -50.519962c -5.08  -3.20    +1.0000
iter:  18 18:41:40   -50.519963c -5.41  -3.31    +1.0000
iter:  19 18:41:40   -50.519968c -5.12  -3.36    +1.0000
iter:  20 18:41:40   -50.519966c -5.37  -3.49    +1.0000
iter:  21 18:41:40   -50.519965c -5.50  -3.75    +1.0000
iter:  22 18:41:40   -50.519964c -5.61  -3.80    +1.0000
iter:  23 18:41:41   -50.519963c -6.00  -3.92    +1.0000
iter:  24 18:41:41   -50.519962c -6.04  -4.03c   +1.0000
iter:  25 18:41:41   -50.519962c -6.36  -4.24c   +1.0000
iter:  26 18:41:41   -50.519963c -6.93  -4.27c   +1.0000
iter:  27 18:41:41   -50.519963c -7.08  -4.32c   +1.0000
iter:  28 18:41:41   -50.519963c -7.23  -4.35c   +1.0000
iter:  29 18:41:41   -50.519963c -7.92c -4.44c   +1.0000

Converged after 29 iterations.

Dipole moment: (-2.142547, -0.679980, 0.000000) |e|*Ang

Total magnetic moment: (0.000000, 0.000000, 1.000000)
Local magnetic moments:
   0 C  ( 0.000000,  0.000000, -0.056670)
   1 C  ( 0.000000,  0.000000,  0.106513)
   2 C  ( 0.000000,  0.000000,  0.018956)
   3 C  ( 0.000000,  0.000000,  0.229626)

Energy contributions relative to reference atoms: (reference = -3806.140580)

Kinetic:        +47.675755
Potential:      -44.785639
External:        +0.000000
XC:             -54.289369
Entropy (-ST):   +0.000000
Local:           +0.879290
--------------------------
Free energy:    -50.519963
Extrapolated:   -50.519963

Spin contamination: 0.118969 electrons
                   Up                     Down
 Band  Eigenvalues  Occupancy  Eigenvalues  Occupancy
    0    -21.00178    1.00000    -21.14004    1.00000
    1    -14.98380    1.00000    -15.03071    1.00000
    2    -14.55653    1.00000    -14.35200    1.00000
    3     -8.87308    1.00000     -8.76883    1.00000
    4     -8.40747    1.00000     -8.37663    1.00000
    5     -4.30857    1.00000     -4.41286    1.00000
    6     -3.31996    1.00000     -3.33396    1.00000
    7     -2.99885    1.00000     -2.77600    1.00000
    8      0.44301    1.00000      1.63138    0.00000
    9      3.13497    0.00000      3.29802    0.00000
   10      5.76462    0.00000      5.80899    0.00000
   11      5.91180    0.00000      5.95075    0.00000
   12      7.27527    0.00000      7.35571    0.00000
   13      7.84406    0.00000      7.82389    0.00000
   14     10.00676    0.00000     10.57677    0.00000

Fermi levels: 1.78899, -0.57231

Timing:                              incl.     excl.
-----------------------------------------------------------
Hamiltonian:                         0.090     0.000   0.0% |
 Atomic:                             0.066     0.000   0.0% |
  XC Correction:                     0.066     0.066   0.0% |
 Calculate atomic Hamiltonians:      0.001     0.001   0.0% |
 Communicate:                        0.000     0.000   0.0% |
 Hartree integrate/restrict:         0.001     0.001   0.0% |
 Initialize Hamiltonian:             0.000     0.000   0.0% |
 Poisson:                            0.004     0.000   0.0% |
  Communicate from 1D:               0.000     0.000   0.0% |
  Communicate from 2D:               0.000     0.000   0.0% |
  Communicate to 1D:                 0.000     0.000   0.0% |
  Communicate to 2D:                 0.001     0.001   0.0% |
  FFT 1D:                            0.000     0.000   0.0% |
  FFT 2D:                            0.002     0.002   0.0% |
 XC 3D grid:                         0.018     0.018   0.0% |
 vbar:                               0.000     0.000   0.0% |
LCAO initialization:                 0.146     0.017   0.0% |
 LCAO eigensolver:                   0.082     0.000   0.0% |
  Calculate projections:             0.000     0.000   0.0% |
  DenseAtomicCorrection:             0.000     0.000   0.0% |
  Distribute overlap matrix:         0.000     0.000   0.0% |
  Orbital Layouts:                   0.000     0.000   0.0% |
  Potential matrix:                  0.081     0.081   0.0% |
 LCAO to grid:                       0.029     0.029   0.0% |
 Set positions (LCAO WFS):           0.018     0.003   0.0% |
  Basic WFS set positions:           0.000     0.000   0.0% |
  Basis functions set positions:     0.000     0.000   0.0% |
  P tci:                             0.004     0.004   0.0% |
  ST tci:                            0.005     0.005   0.0% |
  mktci:                             0.005     0.005   0.0% |
SCF-cycle:                           3.685     0.010   0.0% |
 Davidson:                           1.067     0.462   0.1% |
  Apply hamiltonian:                 0.084     0.084   0.0% |
  Subspace diag:                     0.134     0.002   0.0% |
   calc_h_matrix:                    0.104     0.020   0.0% |
    Apply hamiltonian:               0.084     0.084   0.0% |
   diagonalize:                      0.009     0.009   0.0% |
   rotate_psi:                       0.019     0.019   0.0% |
  calc. matrices:                    0.301     0.137   0.0% |
   Apply hamiltonian:                0.165     0.165   0.0% |
  diagonalize:                       0.049     0.049   0.0% |
  rotate_psi:                        0.036     0.036   0.0% |
 Density:                            0.067     0.000   0.0% |
  Atomic density matrices:           0.009     0.009   0.0% |
  Mix:                               0.043     0.043   0.0% |
  Multipole moments:                 0.001     0.001   0.0% |
  Pseudo density:                    0.013     0.003   0.0% |
   Symmetrize density:               0.010     0.010   0.0% |
 Hamiltonian:                        2.539     0.001   0.0% |
  Atomic:                            1.880     0.008   0.0% |
   XC Correction:                    1.872     1.872   0.3% |
  Calculate atomic Hamiltonians:     0.016     0.016   0.0% |
  Communicate:                       0.000     0.000   0.0% |
  Hartree integrate/restrict:        0.020     0.020   0.0% |
  Poisson:                           0.123     0.008   0.0% |
   Communicate from 1D:              0.013     0.013   0.0% |
   Communicate from 2D:              0.011     0.011   0.0% |
   Communicate to 1D:                0.012     0.012   0.0% |
   Communicate to 2D:                0.017     0.017   0.0% |
   FFT 1D:                           0.014     0.014   0.0% |
   FFT 2D:                           0.049     0.049   0.0% |
  XC 3D grid:                        0.494     0.494   0.1% |
  vbar:                              0.004     0.004   0.0% |
 Orthonormalize:                     0.003     0.000   0.0% |
  calc_s_matrix:                     0.000     0.000   0.0% |
  inverse-cholesky:                  0.000     0.000   0.0% |
  projections:                       0.002     0.002   0.0% |
  rotate_psi_s:                      0.000     0.000   0.0% |
Set symmetry:                        0.001     0.001   0.0% |
Other:                             562.498   562.498  99.3% |---------------------------------------|
-----------------------------------------------------------
Total:                                       566.420 100.0%

Memory usage: 286.70 MiB
Date: Thu May  4 18:51:04 2023
