
  ___ ___ ___ _ _ _  
 |   |   |_  | | | | 
 | | | | | . | | | | 
 |__ |  _|___|_____|  22.8.0
 |___|_|             

User:   austin@austinhoustonmacm1.nomads.utk.edu
Date:   Thu May  4 18:51:21 2023
Arch:   arm64
Pid:    25491
CWD:    /Users/austin/Desktop/dft_class/final_project
Python: 3.8.16
gpaw:   /Users/austin/tensorflow_env/env/lib/python3.8/site-packages/gpaw
_gpaw:  /Users/austin/tensorflow_env/env/lib/python3.8/site-packages/
        _gpaw.cpython-38-darwin.so
ase:    /Users/austin/tensorflow_env/env/lib/python3.8/site-packages/ase (version 3.22.1)
numpy:  /Users/austin/tensorflow_env/env/lib/python3.8/site-packages/numpy (version 1.23.2)
scipy:  /Users/austin/tensorflow_env/env/lib/python3.8/site-packages/scipy (version 1.9.1)
libxc:  6.1.0
units:  Angstrom and eV
cores: 1
OpenMP: False
OMP_NUM_THREADS: 1

Input parameters:
  kpts: [4 4 4]
  mode: {ecut: 300.0,
         name: pw}

System changes: positions, numbers, cell, pbc, initial_charges, initial_magmoms 

Initialize ...

species:
  C:
    name: Carbon
    id: d60576a1f549371a163e72552ca58787
    Z: 6.0
    valence: 4
    core: 2
    charge: 0.0
    file: /Users/austin/gpaw-setups-0.9.20000/C.LDA.gz
    compensation charges: {type: gauss,
                           rc: 0.20,
                           lmax: 2}
    cutoffs: {filter: 1.14,
              core: 1.14}
    valence states:
      #              energy  rcut
      - 2s(2.00)   -13.639   0.635
      - 2p(2.00)    -5.414   0.635
      -  s          13.573   0.635
      -  p          21.797   0.635
      -  d           0.000   0.635
  
    # Using partial waves for C as LCAO basis

Reference energy: -2037.605076  # eV

Spin-paired calculation

Convergence criteria:
 Maximum [total energy] change in last 3 cyles: 0.0005 eV / electron
 Maximum integral of absolute [dens]ity change: 0.0001 electrons / valence electron
 Maximum integral of absolute [eigenst]ate change: 4e-08 eV^2 / valence electron
 Maximum number of scf [iter]ations: 333
 (Square brackets indicate name in SCF output, whereas a 'c' in
 the SCF output indicates the quantity has converged.)

Symmetries present (total): 12

  ( 1  1  0)  ( 1  1  0)  ( 1  0  0)  ( 1  0  0)  ( 0  1  0)  ( 0  1  0)
  ( 0 -1  0)  ( 0 -1  0)  ( 0  1  0)  ( 0  1  0)  (-1 -1  0)  (-1 -1  0)
  ( 0  0  1)  ( 0  0 -1)  ( 0  0  1)  ( 0  0 -1)  ( 0  0  1)  ( 0  0 -1)

  ( 0 -1  0)  ( 0 -1  0)  (-1  0  0)  (-1  0  0)  (-1 -1  0)  (-1 -1  0)
  (-1  0  0)  (-1  0  0)  ( 1  1  0)  ( 1  1  0)  ( 1  0  0)  ( 1  0  0)
  ( 0  0  1)  ( 0  0 -1)  ( 0  0  1)  ( 0  0 -1)  ( 0  0  1)  ( 0  0 -1)
Note: your k-points are not as symmetric as your crystal!

64 k-points: 4 x 4 x 4 Monkhorst-Pack grid
12 k-points in the irreducible part of the Brillouin zone
       k-points in crystal coordinates                weights
   0:     0.12500000   -0.12500000    0.12500000          4/64
   1:     0.12500000   -0.12500000    0.37500000          4/64
   2:     0.12500000    0.12500000    0.12500000          4/64
   3:     0.12500000    0.12500000    0.37500000          4/64
   4:     0.37500000   -0.37500000    0.12500000          4/64
   5:     0.37500000   -0.37500000    0.37500000          4/64
   6:     0.37500000   -0.12500000    0.12500000          8/64
   7:     0.37500000   -0.12500000    0.37500000          8/64
   8:     0.37500000    0.12500000    0.12500000          8/64
   9:     0.37500000    0.12500000    0.37500000          8/64
          ...
  11:     0.37500000    0.37500000    0.37500000          4/64

Wave functions: Plane wave expansion
  Cutoff energy: 300.000 eV
  Number of coefficients (min, max): 795, 836
  Pulay-stress correction: 0.000000 eV/Ang^3 (de/decut=0.000000)
  Using FFTW library
  ScaLapack parameters: grid=1x1, blocksize=None
  Wavefunction extrapolation:
    Improved wavefunction reuse through dual PAW basis 

Occupation numbers: Fermi-Dirac:
  width: 0.1000  # eV
 

Eigensolver
   Davidson(niter=2) 

Densities:
  Coarse grid: 8*8*80 grid
  Fine grid: 16*16*160 grid
  Total Charge: 0.000000 

Density mixing:
  Method: separate
  Backend: pulay
  Linear mixing parameter: 0.05
  old densities: 5
  Damping of long wavelength oscillations: 50 

Hamiltonian:
  XC and Coulomb potentials evaluated on a 16*16*160 grid
  Using the LDA Exchange-Correlation functional
  External potential:
    NoExternalPotential
 

Memory estimate:
  Process memory now: 286.70 MiB
  Calculator: 5.77 MiB
    Density: 2.26 MiB
      Arrays: 1.02 MiB
      Localized functions: 0.85 MiB
      Mixer: 0.39 MiB
    Hamiltonian: 0.68 MiB
      Arrays: 0.66 MiB
      XC: 0.00 MiB
      Poisson: 0.00 MiB
      vbar: 0.02 MiB
    Wavefunctions: 2.83 MiB
      Arrays psit_nG: 1.22 MiB
      Eigensolver: 0.18 MiB
      Projections: 0.04 MiB
      Projectors: 1.05 MiB
      PW-descriptor: 0.35 MiB

Total number of cores used: 1

Number of atoms: 2
Number of atomic orbitals: 8
Number of bands in calculation: 8
Number of valence electrons: 8
Bands to converge: occupied

... initialized

Initializing position-dependent things.

Density initialized from atomic densities
Creating initial wave functions:
  8 bands from LCAO basis set

                 
                 
                 
                 
       CC        
                 
                 
                 
                 

Positions:
   0 C      0.000000    0.000000    0.000000    ( 0.0000,  0.0000,  0.0000)
   1 C      0.000000    1.154701    0.000000    ( 0.0000,  0.0000,  0.0000)

Unit cell:
           periodic     x           y           z      points  spacing
  1. axis:    yes    2.000000    0.000000    0.000000     8     0.2165
  2. axis:    yes   -1.000000    1.732051    0.000000     8     0.2165
  3. axis:    yes    0.000000    0.000000   20.000000    80     0.2500

  Lengths:   2.000000   2.000000  20.000000
  Angles:   90.000000  90.000000 120.000000

Effective grid spacing dv^(1/3) = 0.2383

     iter     time        total  log10-change:
                         energy  eigst   dens
iter:   1 18:51:21   -15.574913
iter:   2 18:51:21   -14.939364  -0.42  -0.55
iter:   3 18:51:21   -11.272819  -0.15  -0.58
iter:   4 18:51:21   -10.390614  -1.06  -0.90
iter:   5 18:51:21   -10.489283  -1.98  -1.44
iter:   6 18:51:21   -10.406377  -1.95  -1.38
iter:   7 18:51:21   -10.406649  -3.34  -2.71
iter:   8 18:51:21   -10.408619c -3.62  -2.72
iter:   9 18:51:21   -10.406771c -3.55  -2.27
iter:  10 18:51:21   -10.406777c -4.79  -3.63
iter:  11 18:51:22   -10.406779c -5.55  -3.36
iter:  12 18:51:22   -10.406788c -5.81  -3.77
iter:  13 18:51:22   -10.406788c -6.80  -3.73
iter:  14 18:51:22   -10.406788c -6.70  -3.89
iter:  15 18:51:22   -10.406788c -7.85c -4.49c

Converged after 15 iterations.

Dipole moment: (-0.986163, 0.569362, 0.000000) |e|*Ang

Energy contributions relative to reference atoms: (reference = -2037.605076)

Kinetic:        +96.183811
Potential:      -71.162603
External:        +0.000000
XC:             -35.488846
Entropy (-ST):   -0.000000
Local:           +0.060850
--------------------------
Free energy:    -10.406788
Extrapolated:   -10.406788

Showing only first 2 kpts
 Kpt  Band  Eigenvalues  Occupancy
  0     2     -3.78046    2.00000
  0     3     -3.17176    2.00000
  0     4      1.69908    0.00000
  0     5      2.63346    0.00000

  1     2     -3.77331    2.00000
  1     3     -3.15649    2.00000
  1     4      1.70040    0.00000
  1     5      2.57074    0.00000


Fermi level: -0.09810

Gap: 3.054 eV
Transition (v -> c):
  (s=0, k=10, n=3, [0.38, 0.38, 0.12]) -> (s=0, k=10, n=4, [0.38, 0.38, 0.12])
Writing to graphene-2.0.gpw (mode='')

Timing:                              incl.     excl.
-----------------------------------------------------------
Hamiltonian:                         0.008     0.000   0.0% |
 Atomic:                             0.006     0.000   0.0% |
  XC Correction:                     0.006     0.006   0.7% |
 Calculate atomic Hamiltonians:      0.000     0.000   0.1% |
 Communicate:                        0.000     0.000   0.0% |
 Initialize Hamiltonian:             0.000     0.000   0.0% |
 Poisson:                            0.000     0.000   0.0% |
 XC 3D grid:                         0.002     0.002   0.2% |
LCAO initialization:                 0.071     0.006   0.7% |
 LCAO eigensolver:                   0.023     0.000   0.0% |
  Calculate projections:             0.000     0.000   0.0% |
  DenseAtomicCorrection:             0.000     0.000   0.0% |
  Distribute overlap matrix:         0.000     0.000   0.0% |
  Orbital Layouts:                   0.001     0.001   0.1% |
  Potential matrix:                  0.020     0.020   2.4% ||
  Sum over cells:                    0.002     0.002   0.2% |
 LCAO to grid:                       0.012     0.012   1.4% ||
 Set positions (LCAO WFS):           0.030     0.006   0.7% |
  Basic WFS set positions:           0.000     0.000   0.0% |
  Basis functions set positions:     0.000     0.000   0.0% |
  P tci:                             0.008     0.008   1.0% |
  ST tci:                            0.012     0.012   1.4% ||
  mktci:                             0.004     0.004   0.5% |
PWDescriptor:                        0.001     0.001   0.2% |
SCF-cycle:                           0.701     0.026   3.0% ||
 Davidson:                           0.511     0.133  15.8% |-----|
  Apply H:                           0.061     0.057   6.7% |--|
   HMM T:                            0.004     0.004   0.5% |
  Subspace diag:                     0.092     0.003   0.4% |
   calc_h_matrix:                    0.073     0.011   1.3% ||
    Apply H:                         0.061     0.057   6.7% |--|
     HMM T:                          0.004     0.004   0.5% |
   diagonalize:                      0.007     0.007   0.9% |
   rotate_psi:                       0.009     0.009   1.1% |
  calc. matrices:                    0.189     0.068   8.0% |--|
   Apply H:                          0.121     0.113  13.4% |----|
    HMM T:                           0.008     0.008   1.0% |
  diagonalize:                       0.020     0.020   2.3% ||
  rotate_psi:                        0.016     0.016   1.9% ||
 Density:                            0.048     0.000   0.0% |
  Atomic density matrices:           0.005     0.005   0.6% |
  Mix:                               0.014     0.014   1.7% ||
  Multipole moments:                 0.001     0.001   0.1% |
  Pseudo density:                    0.028     0.024   2.9% ||
   Symmetrize density:               0.004     0.004   0.5% |
 Hamiltonian:                        0.114     0.001   0.2% |
  Atomic:                            0.081     0.003   0.3% |
   XC Correction:                    0.078     0.078   9.3% |---|
  Calculate atomic Hamiltonians:     0.007     0.007   0.9% |
  Communicate:                       0.000     0.000   0.0% |
  Poisson:                           0.002     0.002   0.2% |
  XC 3D grid:                        0.022     0.022   2.6% ||
 Orthonormalize:                     0.003     0.000   0.0% |
  calc_s_matrix:                     0.001     0.001   0.1% |
  inverse-cholesky:                  0.000     0.000   0.0% |
  projections:                       0.001     0.001   0.2% |
  rotate_psi_s:                      0.000     0.000   0.0% |
Set symmetry:                        0.003     0.003   0.3% |
Other:                               0.062     0.062   7.3% |--|
-----------------------------------------------------------
Total:                                         0.846 100.0%

Memory usage: 286.70 MiB
Date: Thu May  4 18:51:22 2023
