
  ___ ___ ___ _ _ _  
 |   |   |_  | | | | 
 | | | | | . | | | | 
 |__ |  _|___|_____|  22.8.0
 |___|_|             

User:   austin@Austins-MacBook-Pro-81.local
Date:   Fri May  5 11:11:05 2023
Arch:   arm64
Pid:    29491
CWD:    /Users/austin/Desktop/dft_class/final_project
Python: 3.8.16
gpaw:   /Users/austin/tensorflow_env/env/lib/python3.8/site-packages/gpaw
_gpaw:  /Users/austin/tensorflow_env/env/lib/python3.8/site-packages/
        _gpaw.cpython-38-darwin.so
ase:    /Users/austin/tensorflow_env/env/lib/python3.8/site-packages/ase (version 3.22.1)
numpy:  /Users/austin/tensorflow_env/env/lib/python3.8/site-packages/numpy (version 1.23.2)
scipy:  /Users/austin/tensorflow_env/env/lib/python3.8/site-packages/scipy (version 1.9.1)
libxc:  6.1.0
units:  Angstrom and eV
cores: 1
OpenMP: False
OMP_NUM_THREADS: 1

Input parameters:
  kpts: [2 2 2]
  mode: {ecut: 300.0,
         name: pw}

System changes: positions, numbers, cell, pbc, initial_charges, initial_magmoms 

Initialize ...

species:
  C:
    name: Carbon
    id: d60576a1f549371a163e72552ca58787
    Z: 6.0
    valence: 4
    core: 2
    charge: 0.0
    file: /Users/austin/gpaw-setups-0.9.20000/C.LDA.gz
    compensation charges: {type: gauss,
                           rc: 0.20,
                           lmax: 2}
    cutoffs: {filter: 1.14,
              core: 1.14}
    valence states:
      #              energy  rcut
      - 2s(2.00)   -13.639   0.635
      - 2p(2.00)    -5.414   0.635
      -  s          13.573   0.635
      -  p          21.797   0.635
      -  d           0.000   0.635
  
    # Using partial waves for C as LCAO basis

Reference energy: -4075.210151  # eV

Spin-paired calculation

Convergence criteria:
 Maximum [total energy] change in last 3 cyles: 0.0005 eV / electron
 Maximum integral of absolute [dens]ity change: 0.0001 electrons / valence electron
 Maximum integral of absolute [eigenst]ate change: 4e-08 eV^2 / valence electron
 Maximum number of scf [iter]ations: 333
 (Square brackets indicate name in SCF output, whereas a 'c' in
 the SCF output indicates the quantity has converged.)

Symmetries present (total): 4

  ( 1  0  0)  ( 1  0  0)  (-1  0  0)  (-1  0  0)
  ( 0  1  0)  ( 0  1  0)  ( 0  1  0)  ( 0  1  0)
  ( 0  0  1)  ( 0  0 -1)  ( 0  0  1)  ( 0  0 -1)

8 k-points: 2 x 2 x 2 Monkhorst-Pack grid
1 k-point in the irreducible part of the Brillouin zone
       k-points in crystal coordinates                weights
   0:     0.25000000    0.25000000    0.25000000          8/8

Wave functions: Plane wave expansion
  Cutoff energy: 300.000 eV
  Number of coefficients (min, max): 1222, 1222
  Pulay-stress correction: 0.000000 eV/Ang^3 (de/decut=0.000000)
  Using FFTW library
  ScaLapack parameters: grid=1x1, blocksize=None
  Wavefunction extrapolation:
    Improved wavefunction reuse through dual PAW basis 

Occupation numbers: Fermi-Dirac:
  width: 0.1000  # eV
 

Eigensolver
   Davidson(niter=2) 

Densities:
  Coarse grid: 10*18*40 grid
  Fine grid: 20*36*80 grid
  Total Charge: 0.000000 

Density mixing:
  Method: separate
  Backend: pulay
  Linear mixing parameter: 0.05
  old densities: 5
  Damping of long wavelength oscillations: 50 

Hamiltonian:
  XC and Coulomb potentials evaluated on a 20*36*80 grid
  Using the LDA Exchange-Correlation functional
  External potential:
    NoExternalPotential
 

Memory estimate:
  Process memory now: 414.41 MiB
  Calculator: 5.31 MiB
    Density: 3.27 MiB
      Arrays: 1.43 MiB
      Localized functions: 1.29 MiB
      Mixer: 0.55 MiB
    Hamiltonian: 0.96 MiB
      Arrays: 0.93 MiB
      XC: 0.00 MiB
      Poisson: 0.00 MiB
      vbar: 0.03 MiB
    Wavefunctions: 1.08 MiB
      Arrays psit_nG: 0.26 MiB
      Eigensolver: 0.38 MiB
      Projections: 0.01 MiB
      Projectors: 0.13 MiB
      PW-descriptor: 0.29 MiB

Total number of cores used: 1

Number of atoms: 4
Number of atomic orbitals: 16
Number of bands in calculation: 14
Number of valence electrons: 16
Bands to converge: occupied

... initialized

Initializing position-dependent things.

Density initialized from atomic densities
Creating initial wave functions:
  14 bands from LCAO basis set

    .-----.  
   /|     |  
  / |     |  
 *  |     |  
 |  |     |  
 |  |     |  
 |  |     |  
 |  | C   |  
 |C |C    |  
 C  |     |  
 |  |     |  
 |  |     |  
 |  .-----.  
 | /     /   
 |/     /    
 *-----*     

Positions:
   0 C      0.000000    0.000000    5.000000    ( 0.0000,  0.0000,  0.0000)
   1 C      0.000000    1.408735    5.000000    ( 0.0000,  0.0000,  0.0000)
   2 C      1.220000    2.113102    5.000000    ( 0.0000,  0.0000,  0.0000)
   3 C      1.220000    3.521837    5.000000    ( 0.0000,  0.0000,  0.0000)

Unit cell:
           periodic     x           y           z      points  spacing
  1. axis:    yes    2.440000    0.000000    0.000000    10     0.2440
  2. axis:    yes    0.000000    4.226204    0.000000    18     0.2348
  3. axis:    yes    0.000000    0.000000   10.000000    40     0.2500

  Lengths:   2.440000   4.226204  10.000000
  Angles:   90.000000  90.000000  90.000000

Effective grid spacing dv^(1/3) = 0.2428

     iter     time        total  log10-change:
                         energy  eigst   dens
iter:   1 11:11:05   -41.444168
iter:   2 11:11:05   -41.278398  -0.82  -0.80
iter:   3 11:11:05   -40.831316  -0.29  -0.81
iter:   4 11:11:05   -39.900191  -1.89  -0.91
iter:   5 11:11:05   -40.140391  -2.64  -1.12
iter:   6 11:11:06   -39.384676  -1.15  -1.05
iter:   7 11:11:06   -39.390176  -2.53  -2.72
iter:   8 11:11:06   -39.386694c -3.76  -2.29
iter:   9 11:11:06   -39.390124c -3.66  -2.73
iter:  10 11:11:06   -39.439525  -2.60  -2.28
iter:  11 11:11:06   -39.429699  -4.33  -1.65
iter:  12 11:11:06   -39.387788  -2.35  -1.69
iter:  13 11:11:06   -39.386621  -4.22  -2.47
iter:  14 11:11:06   -39.386596c -5.44  -3.24
iter:  15 11:11:06   -39.386604c -6.14  -3.99
iter:  16 11:11:06   -39.386596c -6.44  -3.54
iter:  17 11:11:06   -39.386596c -8.01c -4.18c

Converged after 17 iterations.

Dipole moment: (-0.000000, 1.015110, 0.000000) |e|*Ang

Energy contributions relative to reference atoms: (reference = -4075.210151)

Kinetic:        +29.340276
Potential:      -29.541605
External:        +0.000000
XC:             -39.346217
Entropy (-ST):   -0.000000
Local:           +0.160951
--------------------------
Free energy:    -39.386596
Extrapolated:   -39.386596

 Band  Eigenvalues  Occupancy
    0    -19.23944    2.00000
    1    -16.34373    2.00000
    2    -11.53148    2.00000
    3    -10.14262    2.00000
    4     -8.46433    2.00000
    5     -7.02405    2.00000
    6     -6.13883    2.00000
    7     -3.75308    2.00000
    8      1.97468    0.00000
    9      4.43241    0.00000
   10      5.55727    0.00000
   11      6.59194    0.00000
   12      7.27939    0.00000
   13      7.75634    0.00000

Fermi level: -0.82090

Gap: 5.728 eV
Transition (v -> c):
  (s=0, k=0, n=7, [0.25, 0.25, 0.25]) -> (s=0, k=0, n=8, [0.25, 0.25, 0.25])
Timing:                              incl.     excl.
-----------------------------------------------------------
Hamiltonian:                         0.017     0.000   0.0% |
 Atomic:                             0.012     0.000   0.1% |
  XC Correction:                     0.012     0.012   1.8% ||
 Calculate atomic Hamiltonians:      0.002     0.002   0.3% |
 Communicate:                        0.000     0.000   0.0% |
 Initialize Hamiltonian:             0.000     0.000   0.0% |
 Poisson:                            0.000     0.000   0.0% |
 XC 3D grid:                         0.003     0.003   0.4% |
LCAO initialization:                 0.056     0.006   0.9% |
 LCAO eigensolver:                   0.027     0.000   0.0% |
  Calculate projections:             0.000     0.000   0.0% |
  DenseAtomicCorrection:             0.000     0.000   0.0% |
  Distribute overlap matrix:         0.000     0.000   0.0% |
  Orbital Layouts:                   0.000     0.000   0.0% |
  Potential matrix:                  0.026     0.026   4.0% |-|
  Sum over cells:                    0.000     0.000   0.0% |
 LCAO to grid:                       0.004     0.004   0.7% |
 Set positions (LCAO WFS):           0.019     0.004   0.7% |
  Basic WFS set positions:           0.000     0.000   0.0% |
  Basis functions set positions:     0.000     0.000   0.0% |
  P tci:                             0.005     0.005   0.8% |
  ST tci:                            0.006     0.006   0.9% |
  mktci:                             0.004     0.004   0.6% |
PWDescriptor:                        0.001     0.001   0.1% |
SCF-cycle:                           0.490     0.004   0.7% |
 Davidson:                           0.171     0.038   5.8% |-|
  Apply H:                           0.022     0.021   3.3% ||
   HMM T:                            0.001     0.001   0.1% |
  Subspace diag:                     0.034     0.001   0.1% |
   calc_h_matrix:                    0.029     0.003   0.5% |
    Apply H:                         0.025     0.024   3.8% |-|
     HMM T:                          0.001     0.001   0.2% |
   diagonalize:                      0.002     0.002   0.3% |
   rotate_psi:                       0.003     0.003   0.5% |
  calc. matrices:                    0.061     0.017   2.6% ||
   Apply H:                          0.044     0.042   6.5% |--|
    HMM T:                           0.002     0.002   0.2% |
  diagonalize:                       0.011     0.011   1.7% ||
  rotate_psi:                        0.005     0.005   0.8% |
 Density:                            0.054     0.000   0.0% |
  Atomic density matrices:           0.004     0.004   0.6% |
  Mix:                               0.038     0.038   5.8% |-|
  Multipole moments:                 0.001     0.001   0.1% |
  Pseudo density:                    0.012     0.009   1.4% ||
   Symmetrize density:               0.002     0.002   0.4% |
 Hamiltonian:                        0.259     0.003   0.4% |
  Atomic:                            0.188     0.005   0.8% |
   XC Correction:                    0.183     0.183  28.2% |----------|
  Calculate atomic Hamiltonians:     0.028     0.028   4.3% |-|
  Communicate:                       0.000     0.000   0.0% |
  Poisson:                           0.002     0.002   0.4% |
  XC 3D grid:                        0.038     0.038   5.9% |-|
 Orthonormalize:                     0.001     0.000   0.0% |
  calc_s_matrix:                     0.000     0.000   0.0% |
  inverse-cholesky:                  0.000     0.000   0.0% |
  projections:                       0.000     0.000   0.1% |
  rotate_psi_s:                      0.000     0.000   0.0% |
Set symmetry:                        0.001     0.001   0.1% |
Other:                               0.084     0.084  13.0% |----|
-----------------------------------------------------------
Total:                                         0.648 100.0%

Memory usage: 414.41 MiB
Date: Fri May  5 11:11:06 2023
