
  ___ ___ ___ _ _ _  
 |   |   |_  | | | | 
 | | | | | . | | | | 
 |__ |  _|___|_____|  22.8.0
 |___|_|             

User:   austin@Austins-MacBook-Pro-81.local
Date:   Fri May  5 11:11:31 2023
Arch:   arm64
Pid:    29491
CWD:    /Users/austin/Desktop/dft_class/final_project
Python: 3.8.16
gpaw:   /Users/austin/tensorflow_env/env/lib/python3.8/site-packages/gpaw
_gpaw:  /Users/austin/tensorflow_env/env/lib/python3.8/site-packages/
        _gpaw.cpython-38-darwin.so
ase:    /Users/austin/tensorflow_env/env/lib/python3.8/site-packages/ase (version 3.22.1)
numpy:  /Users/austin/tensorflow_env/env/lib/python3.8/site-packages/numpy (version 1.23.2)
scipy:  /Users/austin/tensorflow_env/env/lib/python3.8/site-packages/scipy (version 1.9.1)
libxc:  6.1.0
units:  Angstrom and eV
cores: 1
OpenMP: False
OMP_NUM_THREADS: 1

Input parameters:
  kpts: [10 10 10]
  mode: {ecut: 300.0,
         name: pw}

System changes: positions, numbers, cell, pbc, initial_charges, initial_magmoms 

Initialize ...

species:
  C:
    name: Carbon
    id: d60576a1f549371a163e72552ca58787
    Z: 6.0
    valence: 4
    core: 2
    charge: 0.0
    file: /Users/austin/gpaw-setups-0.9.20000/C.LDA.gz
    compensation charges: {type: gauss,
                           rc: 0.20,
                           lmax: 2}
    cutoffs: {filter: 1.14,
              core: 1.14}
    valence states:
      #              energy  rcut
      - 2s(2.00)   -13.639   0.635
      - 2p(2.00)    -5.414   0.635
      -  s          13.573   0.635
      -  p          21.797   0.635
      -  d           0.000   0.635
  
    # Using partial waves for C as LCAO basis

Reference energy: -4075.210151  # eV

Spin-paired calculation

Convergence criteria:
 Maximum [total energy] change in last 3 cyles: 0.0005 eV / electron
 Maximum integral of absolute [dens]ity change: 0.0001 electrons / valence electron
 Maximum integral of absolute [eigenst]ate change: 4e-08 eV^2 / valence electron
 Maximum number of scf [iter]ations: 333
 (Square brackets indicate name in SCF output, whereas a 'c' in
 the SCF output indicates the quantity has converged.)

Symmetries present (total): 4

  ( 1  0  0)  ( 1  0  0)  (-1  0  0)  (-1  0  0)
  ( 0  1  0)  ( 0  1  0)  ( 0  1  0)  ( 0  1  0)
  ( 0  0  1)  ( 0  0 -1)  ( 0  0  1)  ( 0  0 -1)

1000 k-points: 10 x 10 x 10 Monkhorst-Pack grid
125 k-points in the irreducible part of the Brillouin zone
       k-points in crystal coordinates                weights
   0:     0.05000000    0.05000000    0.05000000          8/1000
   1:     0.05000000    0.05000000    0.15000000          8/1000
   2:     0.05000000    0.05000000    0.25000000          8/1000
   3:     0.05000000    0.05000000    0.35000000          8/1000
   4:     0.05000000    0.05000000    0.45000000          8/1000
   5:     0.05000000    0.15000000    0.05000000          8/1000
   6:     0.05000000    0.15000000    0.15000000          8/1000
   7:     0.05000000    0.15000000    0.25000000          8/1000
   8:     0.05000000    0.15000000    0.35000000          8/1000
   9:     0.05000000    0.15000000    0.45000000          8/1000
          ...
 124:     0.45000000    0.45000000    0.45000000          8/1000

Wave functions: Plane wave expansion
  Cutoff energy: 300.000 eV
  Number of coefficients (min, max): 1190, 1252
  Pulay-stress correction: 0.000000 eV/Ang^3 (de/decut=0.000000)
  Using FFTW library
  ScaLapack parameters: grid=1x1, blocksize=None
  Wavefunction extrapolation:
    Improved wavefunction reuse through dual PAW basis 

Occupation numbers: Fermi-Dirac:
  width: 0.1000  # eV
 

Eigensolver
   Davidson(niter=2) 

Densities:
  Coarse grid: 10*18*40 grid
  Fine grid: 20*36*80 grid
  Total Charge: 0.000000 

Density mixing:
  Method: separate
  Backend: pulay
  Linear mixing parameter: 0.05
  old densities: 5
  Damping of long wavelength oscillations: 50 

Hamiltonian:
  XC and Coulomb potentials evaluated on a 20*36*80 grid
  Using the LDA Exchange-Correlation functional
  External potential:
    NoExternalPotential
 

Memory estimate:
  Process memory now: 414.41 MiB
  Calculator: 58.35 MiB
    Density: 3.27 MiB
      Arrays: 1.43 MiB
      Localized functions: 1.29 MiB
      Mixer: 0.55 MiB
    Hamiltonian: 0.96 MiB
      Arrays: 0.93 MiB
      XC: 0.00 MiB
      Poisson: 0.00 MiB
      vbar: 0.03 MiB
    Wavefunctions: 54.12 MiB
      Arrays psit_nG: 33.43 MiB
      Eigensolver: 0.39 MiB
      Projections: 1.39 MiB
      Projectors: 16.24 MiB
      PW-descriptor: 2.66 MiB

Total number of cores used: 1

Number of atoms: 4
Number of atomic orbitals: 16
Number of bands in calculation: 14
Number of valence electrons: 16
Bands to converge: occupied

... initialized

Initializing position-dependent things.

Density initialized from atomic densities
Creating initial wave functions:
  14 bands from LCAO basis set

    .-----.  
   /|     |  
  / |     |  
 *  |     |  
 |  |     |  
 |  |     |  
 |  |     |  
 |  | C   |  
 |C |C    |  
 C  |     |  
 |  |     |  
 |  |     |  
 |  .-----.  
 | /     /   
 |/     /    
 *-----*     

Positions:
   0 C      0.000000    0.000000    5.000000    ( 0.0000,  0.0000,  0.0000)
   1 C      0.000000    1.408735    5.000000    ( 0.0000,  0.0000,  0.0000)
   2 C      1.220000    2.113102    5.000000    ( 0.0000,  0.0000,  0.0000)
   3 C      1.220000    3.521837    5.000000    ( 0.0000,  0.0000,  0.0000)

Unit cell:
           periodic     x           y           z      points  spacing
  1. axis:    yes    2.440000    0.000000    0.000000    10     0.2440
  2. axis:    yes    0.000000    4.226204    0.000000    18     0.2348
  3. axis:    yes    0.000000    0.000000   10.000000    40     0.2500

  Lengths:   2.440000   4.226204  10.000000
  Angles:   90.000000  90.000000  90.000000

Effective grid spacing dv^(1/3) = 0.2428

     iter     time        total  log10-change:
                         energy  eigst   dens
iter:   1 11:11:33   -40.041768
iter:   2 11:11:35   -39.849078  -0.84  -0.79
iter:   3 11:11:36   -40.043740  -0.21  -0.80
iter:   4 11:11:37   -38.347281  -1.50  -0.81
iter:   5 11:11:38   -38.404875  -3.30  -1.12
iter:   6 11:11:40   -37.828028  -1.21  -1.10
iter:   7 11:11:41   -37.832823  -2.65  -2.37
iter:   8 11:11:42   -37.826092c -3.51  -2.13
iter:   9 11:11:43   -37.826295c -5.04  -2.77
iter:  10 11:11:45   -37.833967c -3.04  -2.73
iter:  11 11:11:46   -37.833911c -4.59  -2.06
iter:  12 11:11:47   -37.832448c -5.35  -2.05
iter:  13 11:11:48   -37.829175c -4.33  -2.09
iter:  14 11:11:50   -37.830763c -5.14  -2.23
iter:  15 11:11:51   -37.831435c -5.41  -2.14
iter:  16 11:11:52   -37.826031c -3.30  -2.14
iter:  17 11:11:54   -37.826033c -4.91  -3.22
iter:  18 11:11:55   -37.826044c -5.27  -3.25
iter:  19 11:11:56   -37.826023c -5.75  -3.16
iter:  20 11:11:57   -37.826049c -5.70  -3.37
iter:  21 11:11:59   -37.826029c -5.37  -3.21
iter:  22 11:12:00   -37.826021c -6.62  -3.45
iter:  23 11:12:01   -37.826021c -7.07  -3.57
iter:  24 11:12:02   -37.826021c -8.12c -3.70
iter:  25 11:12:04   -37.826020c -7.64c -3.71
iter:  26 11:12:05   -37.826020c -7.56c -4.22c

Converged after 26 iterations.

Dipole moment: (-0.000000, 1.039264, 0.000000) |e|*Ang

Energy contributions relative to reference atoms: (reference = -4075.210151)

Kinetic:        +31.115396
Potential:      -29.454498
External:        +0.000000
XC:             -39.646513
Entropy (-ST):   -0.000969
Local:           +0.160080
--------------------------
Free energy:    -37.826505
Extrapolated:   -37.826020

Showing only first 2 kpts
 Kpt  Band  Eigenvalues  Occupancy
  0     6     -4.04975    2.00000
  0     7     -3.27708    2.00000
  0     8      0.93540    0.00000
  0     9      2.38227    0.00000

  1     6     -4.05658    2.00000
  1     7     -3.28423    2.00000
  1     8      0.94200    0.00000
  1     9      2.41816    0.00000


Fermi level: -0.81728

Gap: 0.887 eV
Transition (v -> c):
  (s=0, k=77, n=7, [0.35, 0.05, 0.25]) -> (s=0, k=75, n=8, [0.35, 0.05, 0.05])
Timing:                              incl.     excl.
-----------------------------------------------------------
Hamiltonian:                         0.015     0.000   0.0% |
 Atomic:                             0.011     0.000   0.0% |
  XC Correction:                     0.011     0.011   0.0% |
 Calculate atomic Hamiltonians:      0.001     0.001   0.0% |
 Communicate:                        0.000     0.000   0.0% |
 Initialize Hamiltonian:             0.000     0.000   0.0% |
 Poisson:                            0.000     0.000   0.0% |
 XC 3D grid:                         0.002     0.002   0.0% |
LCAO initialization:                 0.783     0.006   0.0% |
 LCAO eigensolver:                   0.051     0.001   0.0% |
  Calculate projections:             0.001     0.001   0.0% |
  DenseAtomicCorrection:             0.005     0.005   0.0% |
  Distribute overlap matrix:         0.001     0.001   0.0% |
  Orbital Layouts:                   0.007     0.007   0.0% |
  Potential matrix:                  0.024     0.024   0.0% |
  Sum over cells:                    0.011     0.011   0.0% |
 LCAO to grid:                       0.483     0.483   0.0% |
 Set positions (LCAO WFS):           0.244     0.036   0.0% |
  Basic WFS set positions:           0.000     0.000   0.0% |
  Basis functions set positions:     0.000     0.000   0.0% |
  P tci:                             0.119     0.119   0.0% |
  ST tci:                            0.085     0.085   0.0% |
  mktci:                             0.003     0.003   0.0% |
PWDescriptor:                        0.013     0.013   0.0% |
SCF-cycle:                          32.868     0.360   0.0% |
 Davidson:                          30.287     6.619   0.0% |
  Apply H:                           4.074     3.927   0.0% |
   HMM T:                            0.147     0.147   0.0% |
  Subspace diag:                     5.342     0.071   0.0% |
   calc_h_matrix:                    4.556     0.477   0.0% |
    Apply H:                         4.079     3.920   0.0% |
     HMM T:                          0.159     0.159   0.0% |
   diagonalize:                      0.201     0.201   0.0% |
   rotate_psi:                       0.514     0.514   0.0% |
  calc. matrices:                   11.324     3.055   0.0% |
   Apply H:                          8.269     7.982   0.0% |
    HMM T:                           0.287     0.287   0.0% |
  diagonalize:                       1.929     1.929   0.0% |
  rotate_psi:                        0.998     0.998   0.0% |
 Density:                            1.765     0.000   0.0% |
  Atomic density matrices:           0.083     0.083   0.0% |
  Mix:                               0.056     0.056   0.0% |
  Multipole moments:                 0.001     0.001   0.0% |
  Pseudo density:                    1.624     1.620   0.0% |
   Symmetrize density:               0.004     0.004   0.0% |
 Hamiltonian:                        0.382     0.004   0.0% |
  Atomic:                            0.281     0.007   0.0% |
   XC Correction:                    0.274     0.274   0.0% |
  Calculate atomic Hamiltonians:     0.035     0.035   0.0% |
  Communicate:                       0.000     0.000   0.0% |
  Poisson:                           0.005     0.005   0.0% |
  XC 3D grid:                        0.057     0.057   0.0% |
 Orthonormalize:                     0.074     0.002   0.0% |
  calc_s_matrix:                     0.015     0.015   0.0% |
  inverse-cholesky:                  0.003     0.003   0.0% |
  projections:                       0.044     0.044   0.0% |
  rotate_psi_s:                      0.010     0.010   0.0% |
Set symmetry:                        0.010     0.010   0.0% |
Other:                           68976.308 68976.308 100.0% |---------------------------------------|
-----------------------------------------------------------
Total:                                     69009.998 100.0%

Memory usage: 3.63 GiB
Date: Sat May  6 06:21:41 2023
