
  ___ ___ ___ _ _ _  
 |   |   |_  | | | | 
 | | | | | . | | | | 
 |__ |  _|___|_____|  22.8.0
 |___|_|             

User:   austin@Austins-MacBook-Pro-81.local
Date:   Fri May  5 11:11:08 2023
Arch:   arm64
Pid:    29491
CWD:    /Users/austin/Desktop/dft_class/final_project
Python: 3.8.16
gpaw:   /Users/austin/tensorflow_env/env/lib/python3.8/site-packages/gpaw
_gpaw:  /Users/austin/tensorflow_env/env/lib/python3.8/site-packages/
        _gpaw.cpython-38-darwin.so
ase:    /Users/austin/tensorflow_env/env/lib/python3.8/site-packages/ase (version 3.22.1)
numpy:  /Users/austin/tensorflow_env/env/lib/python3.8/site-packages/numpy (version 1.23.2)
scipy:  /Users/austin/tensorflow_env/env/lib/python3.8/site-packages/scipy (version 1.9.1)
libxc:  6.1.0
units:  Angstrom and eV
cores: 1
OpenMP: False
OMP_NUM_THREADS: 1

Input parameters:
  kpts: [6 6 6]
  mode: {ecut: 300.0,
         name: pw}

System changes: positions, numbers, cell, pbc, initial_charges, initial_magmoms 

Initialize ...

species:
  C:
    name: Carbon
    id: d60576a1f549371a163e72552ca58787
    Z: 6.0
    valence: 4
    core: 2
    charge: 0.0
    file: /Users/austin/gpaw-setups-0.9.20000/C.LDA.gz
    compensation charges: {type: gauss,
                           rc: 0.20,
                           lmax: 2}
    cutoffs: {filter: 1.14,
              core: 1.14}
    valence states:
      #              energy  rcut
      - 2s(2.00)   -13.639   0.635
      - 2p(2.00)    -5.414   0.635
      -  s          13.573   0.635
      -  p          21.797   0.635
      -  d           0.000   0.635
  
    # Using partial waves for C as LCAO basis

Reference energy: -4075.210151  # eV

Spin-paired calculation

Convergence criteria:
 Maximum [total energy] change in last 3 cyles: 0.0005 eV / electron
 Maximum integral of absolute [dens]ity change: 0.0001 electrons / valence electron
 Maximum integral of absolute [eigenst]ate change: 4e-08 eV^2 / valence electron
 Maximum number of scf [iter]ations: 333
 (Square brackets indicate name in SCF output, whereas a 'c' in
 the SCF output indicates the quantity has converged.)

Symmetries present (total): 4

  ( 1  0  0)  ( 1  0  0)  (-1  0  0)  (-1  0  0)
  ( 0  1  0)  ( 0  1  0)  ( 0  1  0)  ( 0  1  0)
  ( 0  0  1)  ( 0  0 -1)  ( 0  0  1)  ( 0  0 -1)

216 k-points: 6 x 6 x 6 Monkhorst-Pack grid
27 k-points in the irreducible part of the Brillouin zone
       k-points in crystal coordinates                weights
   0:     0.08333333    0.08333333    0.08333333          8/216
   1:     0.08333333    0.08333333    0.25000000          8/216
   2:     0.08333333    0.08333333    0.41666667          8/216
   3:     0.08333333    0.25000000    0.08333333          8/216
   4:     0.08333333    0.25000000    0.25000000          8/216
   5:     0.08333333    0.25000000    0.41666667          8/216
   6:     0.08333333    0.41666667    0.08333333          8/216
   7:     0.08333333    0.41666667    0.25000000          8/216
   8:     0.08333333    0.41666667    0.41666667          8/216
   9:     0.25000000    0.08333333    0.08333333          8/216
          ...
  26:     0.41666667    0.41666667    0.41666667          8/216

Wave functions: Plane wave expansion
  Cutoff energy: 300.000 eV
  Number of coefficients (min, max): 1196, 1245
  Pulay-stress correction: 0.000000 eV/Ang^3 (de/decut=0.000000)
  Using FFTW library
  ScaLapack parameters: grid=1x1, blocksize=None
  Wavefunction extrapolation:
    Improved wavefunction reuse through dual PAW basis 

Occupation numbers: Fermi-Dirac:
  width: 0.1000  # eV
 

Eigensolver
   Davidson(niter=2) 

Densities:
  Coarse grid: 10*18*40 grid
  Fine grid: 20*36*80 grid
  Total Charge: 0.000000 

Density mixing:
  Method: separate
  Backend: pulay
  Linear mixing parameter: 0.05
  old densities: 5
  Damping of long wavelength oscillations: 50 

Hamiltonian:
  XC and Coulomb potentials evaluated on a 20*36*80 grid
  Using the LDA Exchange-Correlation functional
  External potential:
    NoExternalPotential
 

Memory estimate:
  Process memory now: 414.41 MiB
  Calculator: 16.39 MiB
    Density: 3.27 MiB
      Arrays: 1.43 MiB
      Localized functions: 1.29 MiB
      Mixer: 0.55 MiB
    Hamiltonian: 0.96 MiB
      Arrays: 0.93 MiB
      XC: 0.00 MiB
      Poisson: 0.00 MiB
      vbar: 0.03 MiB
    Wavefunctions: 12.17 MiB
      Arrays psit_nG: 7.18 MiB
      Eigensolver: 0.39 MiB
      Projections: 0.30 MiB
      Projectors: 3.51 MiB
      PW-descriptor: 0.79 MiB

Total number of cores used: 1

Number of atoms: 4
Number of atomic orbitals: 16
Number of bands in calculation: 14
Number of valence electrons: 16
Bands to converge: occupied

... initialized

Initializing position-dependent things.

Density initialized from atomic densities
Creating initial wave functions:
  14 bands from LCAO basis set

    .-----.  
   /|     |  
  / |     |  
 *  |     |  
 |  |     |  
 |  |     |  
 |  |     |  
 |  | C   |  
 |C |C    |  
 C  |     |  
 |  |     |  
 |  |     |  
 |  .-----.  
 | /     /   
 |/     /    
 *-----*     

Positions:
   0 C      0.000000    0.000000    5.000000    ( 0.0000,  0.0000,  0.0000)
   1 C      0.000000    1.408735    5.000000    ( 0.0000,  0.0000,  0.0000)
   2 C      1.220000    2.113102    5.000000    ( 0.0000,  0.0000,  0.0000)
   3 C      1.220000    3.521837    5.000000    ( 0.0000,  0.0000,  0.0000)

Unit cell:
           periodic     x           y           z      points  spacing
  1. axis:    yes    2.440000    0.000000    0.000000    10     0.2440
  2. axis:    yes    0.000000    4.226204    0.000000    18     0.2348
  3. axis:    yes    0.000000    0.000000   10.000000    40     0.2500

  Lengths:   2.440000   4.226204  10.000000
  Angles:   90.000000  90.000000  90.000000

Effective grid spacing dv^(1/3) = 0.2428

     iter     time        total  log10-change:
                         energy  eigst   dens
iter:   1 11:11:09   -40.060998
iter:   2 11:11:09   -39.869141  -0.85  -0.79
iter:   3 11:11:09   -40.064240  -0.21  -0.80
iter:   4 11:11:09   -38.360233  -1.50  -0.81
iter:   5 11:11:10   -38.412102  -3.28  -1.12
iter:   6 11:11:10   -37.849350  -1.22  -1.11
iter:   7 11:11:10   -37.853629  -2.67  -2.32
iter:   8 11:11:10   -37.846703c -3.50  -2.12
iter:   9 11:11:11   -37.846606c -4.49  -2.79
iter:  10 11:11:11   -37.850287c -3.56  -2.62
iter:  11 11:11:11   -37.850085c -5.21  -2.22
iter:  12 11:11:12   -37.867505  -3.25  -2.23
iter:  13 11:11:12   -37.848499  -2.62  -1.84
iter:  14 11:11:12   -37.846622  -4.22  -2.38
iter:  15 11:11:12   -37.846625c -5.57  -3.66
iter:  16 11:11:13   -37.846836c -4.69  -3.78
iter:  17 11:11:13   -37.846625c -5.02  -2.84
iter:  18 11:11:13   -37.846622c -6.02  -3.63
iter:  19 11:11:14   -37.846622c -7.27  -4.04c
iter:  20 11:11:14   -37.846622c -8.34c -4.06c

Converged after 20 iterations.

Dipole moment: (-0.000000, 1.039198, 0.000000) |e|*Ang

Energy contributions relative to reference atoms: (reference = -4075.210151)

Kinetic:        +31.066068
Potential:      -29.424952
External:        +0.000000
XC:             -39.644670
Entropy (-ST):   -0.000002
Local:           +0.156932
--------------------------
Free energy:    -37.846623
Extrapolated:   -37.846622

Showing only first 2 kpts
 Kpt  Band  Eigenvalues  Occupancy
  0     6     -4.26626    2.00000
  0     7     -3.35499    2.00000
  0     8      1.12953    0.00000
  0     9      2.53654    0.00000

  1     6     -4.26593    2.00000
  1     7     -3.36337    2.00000
  1     8      1.12858    0.00000
  1     9      2.63204    0.00000


Fermi level: -0.85427

Gap: 2.722 eV
Transition (v -> c):
  (s=0, k=20, n=7, [0.42, 0.08, 0.42]) -> (s=0, k=19, n=8, [0.42, 0.08, 0.25])
Timing:                              incl.     excl.
-----------------------------------------------------------
Hamiltonian:                         0.015     0.000   0.0% |
 Atomic:                             0.011     0.000   0.0% |
  XC Correction:                     0.011     0.011   0.2% |
 Calculate atomic Hamiltonians:      0.001     0.001   0.0% |
 Communicate:                        0.000     0.000   0.0% |
 Initialize Hamiltonian:             0.000     0.000   0.0% |
 Poisson:                            0.000     0.000   0.0% |
 XC 3D grid:                         0.002     0.002   0.0% |
LCAO initialization:                 0.205     0.005   0.1% |
 LCAO eigensolver:                   0.031     0.000   0.0% |
  Calculate projections:             0.000     0.000   0.0% |
  DenseAtomicCorrection:             0.001     0.001   0.0% |
  Distribute overlap matrix:         0.000     0.000   0.0% |
  Orbital Layouts:                   0.002     0.002   0.0% |
  Potential matrix:                  0.024     0.024   0.4% |
  Sum over cells:                    0.003     0.003   0.0% |
 LCAO to grid:                       0.104     0.104   1.8% ||
 Set positions (LCAO WFS):           0.065     0.011   0.2% |
  Basic WFS set positions:           0.000     0.000   0.0% |
  Basis functions set positions:     0.000     0.000   0.0% |
  P tci:                             0.029     0.029   0.5% |
  ST tci:                            0.022     0.022   0.4% |
  mktci:                             0.003     0.003   0.1% |
PWDescriptor:                        0.003     0.003   0.1% |
SCF-cycle:                           5.516     0.062   1.1% |
 Davidson:                           4.834     1.059  18.2% |------|
  Apply H:                           0.668     0.645  11.1% |---|
   HMM T:                            0.023     0.023   0.4% |
  Subspace diag:                     0.865     0.010   0.2% |
   calc_h_matrix:                    0.740     0.072   1.2% |
    Apply H:                         0.668     0.643  11.0% |---|
     HMM T:                          0.026     0.026   0.4% |
   diagonalize:                      0.030     0.030   0.5% |
   rotate_psi:                       0.084     0.084   1.4% ||
  calc. matrices:                    1.776     0.450   7.7% |--|
   Apply H:                          1.326     1.279  22.0% |--------|
    HMM T:                           0.046     0.046   0.8% |
  diagonalize:                       0.303     0.303   5.2% |-|
  rotate_psi:                        0.163     0.163   2.8% ||
 Density:                            0.324     0.000   0.0% |
  Atomic density matrices:           0.016     0.016   0.3% |
  Mix:                               0.041     0.041   0.7% |
  Multipole moments:                 0.001     0.001   0.0% |
  Pseudo density:                    0.266     0.263   4.5% |-|
   Symmetrize density:               0.003     0.003   0.1% |
 Hamiltonian:                        0.282     0.003   0.0% |
  Atomic:                            0.208     0.005   0.1% |
   XC Correction:                    0.203     0.203   3.5% ||
  Calculate atomic Hamiltonians:     0.026     0.026   0.5% |
  Communicate:                       0.000     0.000   0.0% |
  Poisson:                           0.003     0.003   0.0% |
  XC 3D grid:                        0.042     0.042   0.7% |
 Orthonormalize:                     0.015     0.000   0.0% |
  calc_s_matrix:                     0.002     0.002   0.0% |
  inverse-cholesky:                  0.001     0.001   0.0% |
  projections:                       0.009     0.009   0.2% |
  rotate_psi_s:                      0.002     0.002   0.0% |
Set symmetry:                        0.003     0.003   0.0% |
Other:                               0.075     0.075   1.3% ||
-----------------------------------------------------------
Total:                                         5.817 100.0%

Memory usage: 414.41 MiB
Date: Fri May  5 11:11:14 2023
