
  ___ ___ ___ _ _ _  
 |   |   |_  | | | | 
 | | | | | . | | | | 
 |__ |  _|___|_____|  22.8.0
 |___|_|             

User:   austin@Austins-MacBook-Pro-81.local
Date:   Fri May  5 13:27:46 2023
Arch:   arm64
Pid:    29491
CWD:    /Users/austin/Desktop/dft_class/final_project
Python: 3.8.16
gpaw:   /Users/austin/tensorflow_env/env/lib/python3.8/site-packages/gpaw
_gpaw:  /Users/austin/tensorflow_env/env/lib/python3.8/site-packages/
        _gpaw.cpython-38-darwin.so
ase:    /Users/austin/tensorflow_env/env/lib/python3.8/site-packages/ase (version 3.22.1)
numpy:  /Users/austin/tensorflow_env/env/lib/python3.8/site-packages/numpy (version 1.23.2)
scipy:  /Users/austin/tensorflow_env/env/lib/python3.8/site-packages/scipy (version 1.9.1)
libxc:  6.1.0
units:  Angstrom and eV
cores: 1
OpenMP: False
OMP_NUM_THREADS: 1

Input parameters:
  kpts: [4 4 4]
  mode: {ecut: 300.0,
         name: pw}

System changes: positions, numbers, cell, pbc, initial_charges, initial_magmoms 

Initialize ...

species:
  C:
    name: Carbon
    id: d60576a1f549371a163e72552ca58787
    Z: 6.0
    valence: 4
    core: 2
    charge: 0.0
    file: /Users/austin/gpaw-setups-0.9.20000/C.LDA.gz
    compensation charges: {type: gauss,
                           rc: 0.20,
                           lmax: 2}
    cutoffs: {filter: 1.14,
              core: 1.14}
    valence states:
      #              energy  rcut
      - 2s(2.00)   -13.639   0.635
      - 2p(2.00)    -5.414   0.635
      -  s          13.573   0.635
      -  p          21.797   0.635
      -  d           0.000   0.635
  
    # Using partial waves for C as LCAO basis

Reference energy: -260813.449677  # eV

Spin-paired calculation

Convergence criteria:
 Maximum [total energy] change in last 3 cyles: 0.0005 eV / electron
 Maximum integral of absolute [dens]ity change: 0.0001 electrons / valence electron
 Maximum integral of absolute [eigenst]ate change: 4e-08 eV^2 / valence electron
 Maximum number of scf [iter]ations: 333
 (Square brackets indicate name in SCF output, whereas a 'c' in
 the SCF output indicates the quantity has converged.)

Symmetries present (total): 4

  ( 1  0  0)  ( 1  0  0)  (-1  0  0)  (-1  0  0)
  ( 0  1  0)  ( 0  1  0)  ( 0  1  0)  ( 0  1  0)
  ( 0  0  1)  ( 0  0 -1)  ( 0  0  1)  ( 0  0 -1)

64 k-points: 4 x 4 x 4 Monkhorst-Pack grid
8 k-points in the irreducible part of the Brillouin zone
       k-points in crystal coordinates                weights
   0:     0.12500000    0.12500000    0.12500000          8/64
   1:     0.12500000    0.12500000    0.37500000          8/64
   2:     0.12500000    0.37500000    0.12500000          8/64
   3:     0.12500000    0.37500000    0.37500000          8/64
   4:     0.37500000    0.12500000    0.12500000          8/64
   5:     0.37500000    0.12500000    0.37500000          8/64
   6:     0.37500000    0.37500000    0.12500000          8/64
   7:     0.37500000    0.37500000    0.37500000          8/64

Wave functions: Plane wave expansion
  Cutoff energy: 300.000 eV
  Number of coefficients (min, max): 77809, 77942
  Pulay-stress correction: 0.000000 eV/Ang^3 (de/decut=0.000000)
  Using FFTW library
  ScaLapack parameters: grid=1x1, blocksize=None
  Wavefunction extrapolation:
    Improved wavefunction reuse through dual PAW basis 

Occupation numbers: Fermi-Dirac:
  width: 0.1000  # eV
 

Eigensolver
   Davidson(niter=2) 

Densities:
  Coarse grid: 80*140*40 grid
  Fine grid: 160*280*80 grid
  Total Charge: 0.000000 

Density mixing:
  Method: separate
  Backend: pulay
  Linear mixing parameter: 0.05
  old densities: 5
  Damping of long wavelength oscillations: 50 

Hamiltonian:
  XC and Coulomb potentials evaluated on a 160*280*80 grid
  Using the LDA Exchange-Correlation functional
  External potential:
    NoExternalPotential
 

Memory estimate:
  Process memory now: 2928.69 MiB
  Calculator: 7299.79 MiB
    Density: 205.37 MiB
      Arrays: 88.87 MiB
      Localized functions: 82.32 MiB
      Mixer: 34.18 MiB
    Hamiltonian: 59.79 MiB
      Arrays: 58.11 MiB
      XC: 0.00 MiB
      Poisson: 0.00 MiB
      vbar: 1.68 MiB
    Wavefunctions: 7034.63 MiB
      Arrays psit_nG: 5889.42 MiB
      Eigensolver: 800.61 MiB
      Projections: 251.47 MiB
      Projectors: 66.54 MiB
      PW-descriptor: 26.60 MiB

Total number of cores used: 1

Number of atoms: 256
Number of atomic orbitals: 1024
Number of bands in calculation: 619
Number of valence electrons: 1024
Bands to converge: occupied

... initialized

Initializing position-dependent things.

Density initialized from atomic densities
Creating initial wave functions:
  619 bands from LCAO basis set

                      .-----------------------------------------------.  
                     /|                                               |  
                    / |                                               |  
                   /  |                                               |  
                  /   |                                               |  
                 /    |                                               |  
                /     |  C     C     C     C     C     C     C     C  |  
               /      | C     C     C     C     C     C     C     C   |  
              /     C |   C     C     C     C     C     C     C       |  
             /     C  C  C  C  C  C  C  C  C  C  C  C  C  C  C  C     |  
            /     C  C| C  C  C  C  C  C  C  C  C  C  C  C  C  C      |  
           /     C    |C     C     C     C     C     C     C          |  
          /        C  .--C-----C-----C-----C-----C-----C-----C--------.  
         /     C  C  C  C  C  C  C  C  C  C  C  C  C  C  C  C        /   
        /     C  C  C  C  C  C  C  C  C  C  C  C  C  C  C  C        /    
       /        C  /  C     C     C     C     C     C     C        /     
      /     C     C     C     C     C     C     C     C           /      
     /     C  C  C  C  C  C   C C  C  C  C  C   C C  C  C        /       
    /     C  C  C  C  C  C  C  C  C  C  C  C  C  C  C  C        /        
   /     C     C     C     C     C     C     C     C           /         
  /        C  /  C     C     C     C     C     C     C        /          
 *     C     C     C     C     C     C     C     C           /           
 |    C  C  C  C  C  C  C  C  C  C  C  C  C  C  C  C        /            
 |  C   C C/  C C   C  C  C C   C C   C  C  C C   C        /             
 |  C     C     C     C     C     C     C     C           /              
 |    C  /  C     C     C     C     C     C     C        /               
 |C  C  C  C  C  C  C  C  C  C  C  C  C  C  C  C        /                
 C     C     C     C     C     C     C     C           /                 
 |    /                                               /                  
 |   /                                               /                   
 |  /                                               /                    
 | /                                               /                     
 |/                                               /                      
 *-----------------------------------------------*                       

Positions:
   0 C      0.000000    0.000000    5.000000    ( 0.0000,  0.0000,  0.0000)
   1 C      0.000000    1.408735    5.000000    ( 0.0000,  0.0000,  0.0000)
   2 C      1.220000    2.113102    5.000000    ( 0.0000,  0.0000,  0.0000)
   3 C      1.220000    3.521837    5.000000    ( 0.0000,  0.0000,  0.0000)
   4 C      0.000000    4.226204    5.000000    ( 0.0000,  0.0000,  0.0000)
   5 C      0.000000    5.634939    5.000000    ( 0.0000,  0.0000,  0.0000)
   6 C      1.220000    6.339306    5.000000    ( 0.0000,  0.0000,  0.0000)
   7 C      1.220000    7.748041    5.000000    ( 0.0000,  0.0000,  0.0000)
   8 C      0.000000    8.452408    5.000000    ( 0.0000,  0.0000,  0.0000)
   9 C      0.000000    9.861143    5.000000    ( 0.0000,  0.0000,  0.0000)
  10 C      1.220000   10.565510    5.000000    ( 0.0000,  0.0000,  0.0000)
  11 C      1.220000   11.974245    5.000000    ( 0.0000,  0.0000,  0.0000)
  12 C      0.000000   12.678612    5.000000    ( 0.0000,  0.0000,  0.0000)
  13 C      0.000000   14.087347    5.000000    ( 0.0000,  0.0000,  0.0000)
  14 C      1.220000   14.791714    5.000000    ( 0.0000,  0.0000,  0.0000)
  15 C      1.220000   16.200449    5.000000    ( 0.0000,  0.0000,  0.0000)
  16 C      0.000000   16.904816    5.000000    ( 0.0000,  0.0000,  0.0000)
  17 C      0.000000   18.313551    5.000000    ( 0.0000,  0.0000,  0.0000)
  18 C      1.220000   19.017918    5.000000    ( 0.0000,  0.0000,  0.0000)
  19 C      1.220000   20.426653    5.000000    ( 0.0000,  0.0000,  0.0000)
  20 C      0.000000   21.131020    5.000000    ( 0.0000,  0.0000,  0.0000)
  21 C      0.000000   22.539755    5.000000    ( 0.0000,  0.0000,  0.0000)
  22 C      1.220000   23.244122    5.000000    ( 0.0000,  0.0000,  0.0000)
  23 C      1.220000   24.652856    5.000000    ( 0.0000,  0.0000,  0.0000)
  24 C      0.000000   25.357224    5.000000    ( 0.0000,  0.0000,  0.0000)
  25 C      0.000000   26.765958    5.000000    ( 0.0000,  0.0000,  0.0000)
  26 C      1.220000   27.470326    5.000000    ( 0.0000,  0.0000,  0.0000)
  27 C      1.220000   28.879060    5.000000    ( 0.0000,  0.0000,  0.0000)
  28 C      0.000000   29.583428    5.000000    ( 0.0000,  0.0000,  0.0000)
  29 C      0.000000   30.992162    5.000000    ( 0.0000,  0.0000,  0.0000)
  30 C      1.220000   31.696530    5.000000    ( 0.0000,  0.0000,  0.0000)
  31 C      1.220000   33.105264    5.000000    ( 0.0000,  0.0000,  0.0000)
  32 C      2.440000    0.000000    5.000000    ( 0.0000,  0.0000,  0.0000)
  33 C      2.440000    1.408735    5.000000    ( 0.0000,  0.0000,  0.0000)
  34 C      3.660000    2.113102    5.000000    ( 0.0000,  0.0000,  0.0000)
  35 C      3.660000    3.521837    5.000000    ( 0.0000,  0.0000,  0.0000)
  36 C      2.440000    4.226204    5.000000    ( 0.0000,  0.0000,  0.0000)
  37 C      2.440000    5.634939    5.000000    ( 0.0000,  0.0000,  0.0000)
  38 C      3.660000    6.339306    5.000000    ( 0.0000,  0.0000,  0.0000)
  39 C      3.660000    7.748041    5.000000    ( 0.0000,  0.0000,  0.0000)
  40 C      2.440000    8.452408    5.000000    ( 0.0000,  0.0000,  0.0000)
  41 C      2.440000    9.861143    5.000000    ( 0.0000,  0.0000,  0.0000)
  42 C      3.660000   10.565510    5.000000    ( 0.0000,  0.0000,  0.0000)
  43 C      3.660000   11.974245    5.000000    ( 0.0000,  0.0000,  0.0000)
  44 C      2.440000   12.678612    5.000000    ( 0.0000,  0.0000,  0.0000)
  45 C      2.440000   14.087347    5.000000    ( 0.0000,  0.0000,  0.0000)
  46 C      3.660000   14.791714    5.000000    ( 0.0000,  0.0000,  0.0000)
  47 C      3.660000   16.200449    5.000000    ( 0.0000,  0.0000,  0.0000)
  48 C      2.440000   16.904816    5.000000    ( 0.0000,  0.0000,  0.0000)
  49 C      2.440000   18.313551    5.000000    ( 0.0000,  0.0000,  0.0000)
  50 C      3.660000   19.017918    5.000000    ( 0.0000,  0.0000,  0.0000)
  51 C      3.660000   20.426653    5.000000    ( 0.0000,  0.0000,  0.0000)
  52 C      2.440000   21.131020    5.000000    ( 0.0000,  0.0000,  0.0000)
  53 C      2.440000   22.539755    5.000000    ( 0.0000,  0.0000,  0.0000)
  54 C      3.660000   23.244122    5.000000    ( 0.0000,  0.0000,  0.0000)
  55 C      3.660000   24.652856    5.000000    ( 0.0000,  0.0000,  0.0000)
  56 C      2.440000   25.357224    5.000000    ( 0.0000,  0.0000,  0.0000)
  57 C      2.440000   26.765958    5.000000    ( 0.0000,  0.0000,  0.0000)
  58 C      3.660000   27.470326    5.000000    ( 0.0000,  0.0000,  0.0000)
  59 C      3.660000   28.879060    5.000000    ( 0.0000,  0.0000,  0.0000)
  60 C      2.440000   29.583428    5.000000    ( 0.0000,  0.0000,  0.0000)
  61 C      2.440000   30.992162    5.000000    ( 0.0000,  0.0000,  0.0000)
  62 C      3.660000   31.696530    5.000000    ( 0.0000,  0.0000,  0.0000)
  63 C      3.660000   33.105264    5.000000    ( 0.0000,  0.0000,  0.0000)
  64 C      4.880000    0.000000    5.000000    ( 0.0000,  0.0000,  0.0000)
  65 C      4.880000    1.408735    5.000000    ( 0.0000,  0.0000,  0.0000)
  66 C      6.100000    2.113102    5.000000    ( 0.0000,  0.0000,  0.0000)
  67 C      6.100000    3.521837    5.000000    ( 0.0000,  0.0000,  0.0000)
  68 C      4.880000    4.226204    5.000000    ( 0.0000,  0.0000,  0.0000)
  69 C      4.880000    5.634939    5.000000    ( 0.0000,  0.0000,  0.0000)
  70 C      6.100000    6.339306    5.000000    ( 0.0000,  0.0000,  0.0000)
  71 C      6.100000    7.748041    5.000000    ( 0.0000,  0.0000,  0.0000)
  72 C      4.880000    8.452408    5.000000    ( 0.0000,  0.0000,  0.0000)
  73 C      4.880000    9.861143    5.000000    ( 0.0000,  0.0000,  0.0000)
  74 C      6.100000   10.565510    5.000000    ( 0.0000,  0.0000,  0.0000)
  75 C      6.100000   11.974245    5.000000    ( 0.0000,  0.0000,  0.0000)
  76 C      4.880000   12.678612    5.000000    ( 0.0000,  0.0000,  0.0000)
  77 C      4.880000   14.087347    5.000000    ( 0.0000,  0.0000,  0.0000)
  78 C      6.100000   14.791714    5.000000    ( 0.0000,  0.0000,  0.0000)
  79 C      6.100000   16.200449    5.000000    ( 0.0000,  0.0000,  0.0000)
  80 C      4.880000   16.904816    5.000000    ( 0.0000,  0.0000,  0.0000)
  81 C      4.880000   18.313551    5.000000    ( 0.0000,  0.0000,  0.0000)
  82 C      6.100000   19.017918    5.000000    ( 0.0000,  0.0000,  0.0000)
  83 C      6.100000   20.426653    5.000000    ( 0.0000,  0.0000,  0.0000)
  84 C      4.880000   21.131020    5.000000    ( 0.0000,  0.0000,  0.0000)
  85 C      4.880000   22.539755    5.000000    ( 0.0000,  0.0000,  0.0000)
  86 C      6.100000   23.244122    5.000000    ( 0.0000,  0.0000,  0.0000)
  87 C      6.100000   24.652856    5.000000    ( 0.0000,  0.0000,  0.0000)
  88 C      4.880000   25.357224    5.000000    ( 0.0000,  0.0000,  0.0000)
  89 C      4.880000   26.765958    5.000000    ( 0.0000,  0.0000,  0.0000)
  90 C      6.100000   27.470326    5.000000    ( 0.0000,  0.0000,  0.0000)
  91 C      6.100000   28.879060    5.000000    ( 0.0000,  0.0000,  0.0000)
  92 C      4.880000   29.583428    5.000000    ( 0.0000,  0.0000,  0.0000)
  93 C      4.880000   30.992162    5.000000    ( 0.0000,  0.0000,  0.0000)
  94 C      6.100000   31.696530    5.000000    ( 0.0000,  0.0000,  0.0000)
  95 C      6.100000   33.105264    5.000000    ( 0.0000,  0.0000,  0.0000)
  96 C      7.320000    0.000000    5.000000    ( 0.0000,  0.0000,  0.0000)
  97 C      7.320000    1.408735    5.000000    ( 0.0000,  0.0000,  0.0000)
  98 C      8.540000    2.113102    5.000000    ( 0.0000,  0.0000,  0.0000)
  99 C      8.540000    3.521837    5.000000    ( 0.0000,  0.0000,  0.0000)
 100 C      7.320000    4.226204    5.000000    ( 0.0000,  0.0000,  0.0000)
 101 C      7.320000    5.634939    5.000000    ( 0.0000,  0.0000,  0.0000)
 102 C      8.540000    6.339306    5.000000    ( 0.0000,  0.0000,  0.0000)
 103 C      8.540000    7.748041    5.000000    ( 0.0000,  0.0000,  0.0000)
 104 C      7.320000    8.452408    5.000000    ( 0.0000,  0.0000,  0.0000)
 105 C      7.320000    9.861143    5.000000    ( 0.0000,  0.0000,  0.0000)
 106 C      8.540000   10.565510    5.000000    ( 0.0000,  0.0000,  0.0000)
 107 C      8.540000   11.974245    5.000000    ( 0.0000,  0.0000,  0.0000)
 108 C      7.320000   12.678612    5.000000    ( 0.0000,  0.0000,  0.0000)
 109 C      7.320000   14.087347    5.000000    ( 0.0000,  0.0000,  0.0000)
 110 C      8.540000   14.791714    5.000000    ( 0.0000,  0.0000,  0.0000)
 111 C      8.540000   16.200449    5.000000    ( 0.0000,  0.0000,  0.0000)
 112 C      7.320000   16.904816    5.000000    ( 0.0000,  0.0000,  0.0000)
 113 C      7.320000   18.313551    5.000000    ( 0.0000,  0.0000,  0.0000)
 114 C      8.540000   19.017918    5.000000    ( 0.0000,  0.0000,  0.0000)
 115 C      8.540000   20.426653    5.000000    ( 0.0000,  0.0000,  0.0000)
 116 C      7.320000   21.131020    5.000000    ( 0.0000,  0.0000,  0.0000)
 117 C      7.320000   22.539755    5.000000    ( 0.0000,  0.0000,  0.0000)
 118 C      8.540000   23.244122    5.000000    ( 0.0000,  0.0000,  0.0000)
 119 C      8.540000   24.652856    5.000000    ( 0.0000,  0.0000,  0.0000)
 120 C      7.320000   25.357224    5.000000    ( 0.0000,  0.0000,  0.0000)
 121 C      7.320000   26.765958    5.000000    ( 0.0000,  0.0000,  0.0000)
 122 C      8.540000   27.470326    5.000000    ( 0.0000,  0.0000,  0.0000)
 123 C      8.540000   28.879060    5.000000    ( 0.0000,  0.0000,  0.0000)
 124 C      7.320000   29.583428    5.000000    ( 0.0000,  0.0000,  0.0000)
 125 C      7.320000   30.992162    5.000000    ( 0.0000,  0.0000,  0.0000)
 126 C      8.540000   31.696530    5.000000    ( 0.0000,  0.0000,  0.0000)
 127 C      8.540000   33.105264    5.000000    ( 0.0000,  0.0000,  0.0000)
 128 C      9.760000    0.000000    5.000000    ( 0.0000,  0.0000,  0.0000)
 129 C      9.760000    1.408735    5.000000    ( 0.0000,  0.0000,  0.0000)
 130 C     10.980000    2.113102    5.000000    ( 0.0000,  0.0000,  0.0000)
 131 C     10.980000    3.521837    5.000000    ( 0.0000,  0.0000,  0.0000)
 132 C      9.760000    4.226204    5.000000    ( 0.0000,  0.0000,  0.0000)
 133 C      9.760000    5.634939    5.000000    ( 0.0000,  0.0000,  0.0000)
 134 C     10.980000    6.339306    5.000000    ( 0.0000,  0.0000,  0.0000)
 135 C     10.980000    7.748041    5.000000    ( 0.0000,  0.0000,  0.0000)
 136 C      9.760000    8.452408    5.000000    ( 0.0000,  0.0000,  0.0000)
 137 C      9.760000    9.861143    5.000000    ( 0.0000,  0.0000,  0.0000)
 138 C     10.980000   10.565510    5.000000    ( 0.0000,  0.0000,  0.0000)
 139 C     10.980000   11.974245    5.000000    ( 0.0000,  0.0000,  0.0000)
 140 C      9.760000   12.678612    5.000000    ( 0.0000,  0.0000,  0.0000)
 141 C      9.760000   14.087347    5.000000    ( 0.0000,  0.0000,  0.0000)
 142 C     10.980000   14.791714    5.000000    ( 0.0000,  0.0000,  0.0000)
 143 C     10.980000   16.200449    5.000000    ( 0.0000,  0.0000,  0.0000)
 144 C      9.760000   16.904816    5.000000    ( 0.0000,  0.0000,  0.0000)
 145 C      9.760000   18.313551    5.000000    ( 0.0000,  0.0000,  0.0000)
 146 C     10.980000   19.017918    5.000000    ( 0.0000,  0.0000,  0.0000)
 147 C     10.980000   20.426653    5.000000    ( 0.0000,  0.0000,  0.0000)
 148 C      9.760000   21.131020    5.000000    ( 0.0000,  0.0000,  0.0000)
 149 C      9.760000   22.539755    5.000000    ( 0.0000,  0.0000,  0.0000)
 150 C     10.980000   23.244122    5.000000    ( 0.0000,  0.0000,  0.0000)
 151 C     10.980000   24.652856    5.000000    ( 0.0000,  0.0000,  0.0000)
 152 C      9.760000   25.357224    5.000000    ( 0.0000,  0.0000,  0.0000)
 153 C      9.760000   26.765958    5.000000    ( 0.0000,  0.0000,  0.0000)
 154 C     10.980000   27.470326    5.000000    ( 0.0000,  0.0000,  0.0000)
 155 C     10.980000   28.879060    5.000000    ( 0.0000,  0.0000,  0.0000)
 156 C      9.760000   29.583428    5.000000    ( 0.0000,  0.0000,  0.0000)
 157 C      9.760000   30.992162    5.000000    ( 0.0000,  0.0000,  0.0000)
 158 C     10.980000   31.696530    5.000000    ( 0.0000,  0.0000,  0.0000)
 159 C     10.980000   33.105264    5.000000    ( 0.0000,  0.0000,  0.0000)
 160 C     12.200000    0.000000    5.000000    ( 0.0000,  0.0000,  0.0000)
 161 C     12.200000    1.408735    5.000000    ( 0.0000,  0.0000,  0.0000)
 162 C     13.420000    2.113102    5.000000    ( 0.0000,  0.0000,  0.0000)
 163 C     13.420000    3.521837    5.000000    ( 0.0000,  0.0000,  0.0000)
 164 C     12.200000    4.226204    5.000000    ( 0.0000,  0.0000,  0.0000)
 165 C     12.200000    5.634939    5.000000    ( 0.0000,  0.0000,  0.0000)
 166 C     13.420000    6.339306    5.000000    ( 0.0000,  0.0000,  0.0000)
 167 C     13.420000    7.748041    5.000000    ( 0.0000,  0.0000,  0.0000)
 168 C     12.200000    8.452408    5.000000    ( 0.0000,  0.0000,  0.0000)
 169 C     12.200000    9.861143    5.000000    ( 0.0000,  0.0000,  0.0000)
 170 C     13.420000   10.565510    5.000000    ( 0.0000,  0.0000,  0.0000)
 171 C     13.420000   11.974245    5.000000    ( 0.0000,  0.0000,  0.0000)
 172 C     12.200000   12.678612    5.000000    ( 0.0000,  0.0000,  0.0000)
 173 C     12.200000   14.087347    5.000000    ( 0.0000,  0.0000,  0.0000)
 174 C     13.420000   14.791714    5.000000    ( 0.0000,  0.0000,  0.0000)
 175 C     13.420000   16.200449    5.000000    ( 0.0000,  0.0000,  0.0000)
 176 C     12.200000   16.904816    5.000000    ( 0.0000,  0.0000,  0.0000)
 177 C     12.200000   18.313551    5.000000    ( 0.0000,  0.0000,  0.0000)
 178 C     13.420000   19.017918    5.000000    ( 0.0000,  0.0000,  0.0000)
 179 C     13.420000   20.426653    5.000000    ( 0.0000,  0.0000,  0.0000)
 180 C     12.200000   21.131020    5.000000    ( 0.0000,  0.0000,  0.0000)
 181 C     12.200000   22.539755    5.000000    ( 0.0000,  0.0000,  0.0000)
 182 C     13.420000   23.244122    5.000000    ( 0.0000,  0.0000,  0.0000)
 183 C     13.420000   24.652856    5.000000    ( 0.0000,  0.0000,  0.0000)
 184 C     12.200000   25.357224    5.000000    ( 0.0000,  0.0000,  0.0000)
 185 C     12.200000   26.765958    5.000000    ( 0.0000,  0.0000,  0.0000)
 186 C     13.420000   27.470326    5.000000    ( 0.0000,  0.0000,  0.0000)
 187 C     13.420000   28.879060    5.000000    ( 0.0000,  0.0000,  0.0000)
 188 C     12.200000   29.583428    5.000000    ( 0.0000,  0.0000,  0.0000)
 189 C     12.200000   30.992162    5.000000    ( 0.0000,  0.0000,  0.0000)
 190 C     13.420000   31.696530    5.000000    ( 0.0000,  0.0000,  0.0000)
 191 C     13.420000   33.105264    5.000000    ( 0.0000,  0.0000,  0.0000)
 192 C     14.640000    0.000000    5.000000    ( 0.0000,  0.0000,  0.0000)
 193 C     14.640000    1.408735    5.000000    ( 0.0000,  0.0000,  0.0000)
 194 C     15.860000    2.113102    5.000000    ( 0.0000,  0.0000,  0.0000)
 195 C     15.860000    3.521837    5.000000    ( 0.0000,  0.0000,  0.0000)
 196 C     14.640000    4.226204    5.000000    ( 0.0000,  0.0000,  0.0000)
 197 C     14.640000    5.634939    5.000000    ( 0.0000,  0.0000,  0.0000)
 198 C     15.860000    6.339306    5.000000    ( 0.0000,  0.0000,  0.0000)
 199 C     15.860000    7.748041    5.000000    ( 0.0000,  0.0000,  0.0000)
 200 C     14.640000    8.452408    5.000000    ( 0.0000,  0.0000,  0.0000)
 201 C     14.640000    9.861143    5.000000    ( 0.0000,  0.0000,  0.0000)
 202 C     15.860000   10.565510    5.000000    ( 0.0000,  0.0000,  0.0000)
 203 C     15.860000   11.974245    5.000000    ( 0.0000,  0.0000,  0.0000)
 204 C     14.640000   12.678612    5.000000    ( 0.0000,  0.0000,  0.0000)
 205 C     14.640000   14.087347    5.000000    ( 0.0000,  0.0000,  0.0000)
 206 C     15.860000   14.791714    5.000000    ( 0.0000,  0.0000,  0.0000)
 207 C     15.860000   16.200449    5.000000    ( 0.0000,  0.0000,  0.0000)
 208 C     14.640000   16.904816    5.000000    ( 0.0000,  0.0000,  0.0000)
 209 C     14.640000   18.313551    5.000000    ( 0.0000,  0.0000,  0.0000)
 210 C     15.860000   19.017918    5.000000    ( 0.0000,  0.0000,  0.0000)
 211 C     15.860000   20.426653    5.000000    ( 0.0000,  0.0000,  0.0000)
 212 C     14.640000   21.131020    5.000000    ( 0.0000,  0.0000,  0.0000)
 213 C     14.640000   22.539755    5.000000    ( 0.0000,  0.0000,  0.0000)
 214 C     15.860000   23.244122    5.000000    ( 0.0000,  0.0000,  0.0000)
 215 C     15.860000   24.652856    5.000000    ( 0.0000,  0.0000,  0.0000)
 216 C     14.640000   25.357224    5.000000    ( 0.0000,  0.0000,  0.0000)
 217 C     14.640000   26.765958    5.000000    ( 0.0000,  0.0000,  0.0000)
 218 C     15.860000   27.470326    5.000000    ( 0.0000,  0.0000,  0.0000)
 219 C     15.860000   28.879060    5.000000    ( 0.0000,  0.0000,  0.0000)
 220 C     14.640000   29.583428    5.000000    ( 0.0000,  0.0000,  0.0000)
 221 C     14.640000   30.992162    5.000000    ( 0.0000,  0.0000,  0.0000)
 222 C     15.860000   31.696530    5.000000    ( 0.0000,  0.0000,  0.0000)
 223 C     15.860000   33.105264    5.000000    ( 0.0000,  0.0000,  0.0000)
 224 C     17.080000    0.000000    5.000000    ( 0.0000,  0.0000,  0.0000)
 225 C     17.080000    1.408735    5.000000    ( 0.0000,  0.0000,  0.0000)
 226 C     18.300000    2.113102    5.000000    ( 0.0000,  0.0000,  0.0000)
 227 C     18.300000    3.521837    5.000000    ( 0.0000,  0.0000,  0.0000)
 228 C     17.080000    4.226204    5.000000    ( 0.0000,  0.0000,  0.0000)
 229 C     17.080000    5.634939    5.000000    ( 0.0000,  0.0000,  0.0000)
 230 C     18.300000    6.339306    5.000000    ( 0.0000,  0.0000,  0.0000)
 231 C     18.300000    7.748041    5.000000    ( 0.0000,  0.0000,  0.0000)
 232 C     17.080000    8.452408    5.000000    ( 0.0000,  0.0000,  0.0000)
 233 C     17.080000    9.861143    5.000000    ( 0.0000,  0.0000,  0.0000)
 234 C     18.300000   10.565510    5.000000    ( 0.0000,  0.0000,  0.0000)
 235 C     18.300000   11.974245    5.000000    ( 0.0000,  0.0000,  0.0000)
 236 C     17.080000   12.678612    5.000000    ( 0.0000,  0.0000,  0.0000)
 237 C     17.080000   14.087347    5.000000    ( 0.0000,  0.0000,  0.0000)
 238 C     18.300000   14.791714    5.000000    ( 0.0000,  0.0000,  0.0000)
 239 C     18.300000   16.200449    5.000000    ( 0.0000,  0.0000,  0.0000)
 240 C     17.080000   16.904816    5.000000    ( 0.0000,  0.0000,  0.0000)
 241 C     17.080000   18.313551    5.000000    ( 0.0000,  0.0000,  0.0000)
 242 C     18.300000   19.017918    5.000000    ( 0.0000,  0.0000,  0.0000)
 243 C     18.300000   20.426653    5.000000    ( 0.0000,  0.0000,  0.0000)
 244 C     17.080000   21.131020    5.000000    ( 0.0000,  0.0000,  0.0000)
 245 C     17.080000   22.539755    5.000000    ( 0.0000,  0.0000,  0.0000)
 246 C     18.300000   23.244122    5.000000    ( 0.0000,  0.0000,  0.0000)
 247 C     18.300000   24.652856    5.000000    ( 0.0000,  0.0000,  0.0000)
 248 C     17.080000   25.357224    5.000000    ( 0.0000,  0.0000,  0.0000)
 249 C     17.080000   26.765958    5.000000    ( 0.0000,  0.0000,  0.0000)
 250 C     18.300000   27.470326    5.000000    ( 0.0000,  0.0000,  0.0000)
 251 C     18.300000   28.879060    5.000000    ( 0.0000,  0.0000,  0.0000)
 252 C     17.080000   29.583428    5.000000    ( 0.0000,  0.0000,  0.0000)
 253 C     17.080000   30.992162    5.000000    ( 0.0000,  0.0000,  0.0000)
 254 C     18.300000   31.696530    5.000000    ( 0.0000,  0.0000,  0.0000)
 255 C     18.300000   33.105264    5.000000    ( 0.0000,  0.0000,  0.0000)

Unit cell:
           periodic     x           y           z      points  spacing
  1. axis:    yes   19.520000    0.000000    0.000000    80     0.2440
  2. axis:    yes    0.000000   33.809632    0.000000   140     0.2415
  3. axis:    yes    0.000000    0.000000   10.000000    40     0.2500

  Lengths:  19.520000  33.809632  10.000000
  Angles:   90.000000  90.000000  90.000000

Effective grid spacing dv^(1/3) = 0.2451

     iter     time        total  log10-change:
                         energy  eigst   dens
iter:   1 14:31:21 -2554.570972
iter:   2 15:07:26 -2549.809886  -0.48  -0.80
iter:   3 15:43:40 -2595.119134  -1.08  -0.80
iter:   4 16:20:12 -2468.324430  -0.28  -0.74
iter:   5 16:56:04 -2464.878455  -1.72  -1.07
iter:   6 17:31:50 -2426.858960  -1.61  -1.07
iter:   7 18:07:38 -2422.021370  -2.17  -1.49
iter:   8 18:43:13 -2421.342520  -2.89  -1.88
iter:   9 19:18:42 -2421.105741  -3.11  -2.17
iter:  10 19:54:51 -2421.127556c -3.86  -3.48
iter:  11 20:30:43 -2421.108176c -4.54  -2.78
iter:  12 21:06:23 -2421.108201c -5.70  -3.68
iter:  13 21:42:27 -2421.108216c -6.35  -3.75
iter:  14 22:19:01 -2421.108337c -6.51  -3.78
iter:  15 22:55:16 -2421.108286c -6.82  -3.89
iter:  16 23:30:50 -2421.108282c -7.86c -4.43c

Converged after 16 iterations.

Dipole moment: (0.000000, 66.402150, 0.000000) |e|*Ang

Energy contributions relative to reference atoms: (reference = -260813.449677)

Kinetic:       +1992.508957
Potential:     -1887.008627
External:        +0.000000
XC:            -2537.258363
Entropy (-ST):   -0.074341
Local:          +10.686921
--------------------------
Free energy:   -2421.145452
Extrapolated:  -2421.108282

Showing only first 2 kpts
 Kpt  Band  Eigenvalues  Occupancy
  0   510     -1.71386    1.99975
  0   511     -1.22972    1.96915
  0   512     -0.39829    0.03079
  0   513      0.01617    0.00050

  1   510     -1.70464    1.99973
  1   511     -1.21812    1.96542
  1   512     -0.41353    0.03578
  1   513      0.02540    0.00045


Fermi level: -0.81409

Gap: 0.302 eV
Transition (v -> c):
  (s=0, k=5, n=511, [0.38, 0.12, 0.38]) -> (s=0, k=5, n=512, [0.38, 0.12, 0.38])
Timing:                              incl.     excl.
-----------------------------------------------------------
Hamiltonian:                        10.974     0.029   0.0% |
 Atomic:                             0.688     0.012   0.0% |
  XC Correction:                     0.676     0.676   0.0% |
 Calculate atomic Hamiltonians:      9.912     9.912   0.0% |
 Communicate:                        0.000     0.000   0.0% |
 Initialize Hamiltonian:             0.002     0.002   0.0% |
 Poisson:                            0.030     0.030   0.0% |
 XC 3D grid:                         0.312     0.312   0.0% |
LCAO initialization:              1322.384     0.037   0.0% |
 LCAO eigensolver:                  21.863     0.028   0.0% |
  Calculate projections:             4.650     4.650   0.0% |
  DenseAtomicCorrection:             6.969     6.969   0.0% |
  Distribute overlap matrix:         0.059     0.059   0.0% |
  Orbital Layouts:                   6.841     6.841   0.0% |
  Potential matrix:                  2.839     2.839   0.0% |
  Sum over cells:                    0.477     0.477   0.0% |
 LCAO to grid:                    1287.930  1287.930   2.1% ||
 Set positions (LCAO WFS):          12.554     7.593   0.0% |
  Basic WFS set positions:           0.016     0.016   0.0% |
  Basis functions set positions:     0.001     0.001   0.0% |
  P tci:                             4.216     4.216   0.0% |
  ST tci:                            0.653     0.653   0.0% |
  mktci:                             0.075     0.075   0.0% |
PWDescriptor:                        0.081     0.081   0.0% |
SCF-cycle:                       34809.355     0.506   0.0% |
 Davidson:                       33362.234 18491.557  30.0% |-----------|
  Apply H:                         490.859   474.105   0.8% |
   HMM T:                           16.755    16.755   0.0% |
  Subspace diag:                  3542.639     0.289   0.0% |
   calc_h_matrix:                 1732.441   914.656   1.5% ||
    Apply H:                       817.784   477.798   0.8% |
     HMM T:                        339.987   339.987   0.6% |
   diagonalize:                     27.023    27.023   0.0% |
   rotate_psi:                    1782.886  1782.886   2.9% ||
  calc. matrices:                 7087.361  6076.387   9.9% |---|
   Apply H:                       1010.975   942.475   1.5% ||
    HMM T:                          68.500    68.500   0.1% |
  diagonalize:                     361.447   361.447   0.6% |
  rotate_psi:                     3388.369  3388.369   5.5% |-|
 Density:                          859.756     0.009   0.0% |
  Atomic density matrices:          22.488    22.488   0.0% |
  Mix:                             326.462   326.462   0.5% |
  Multipole moments:                 0.136     0.136   0.0% |
  Pseudo density:                  510.661   510.399   0.8% |
   Symmetrize density:               0.262     0.262   0.0% |
 Hamiltonian:                      189.535     0.655   0.0% |
  Atomic:                           10.553     0.277   0.0% |
   XC Correction:                   10.276    10.276   0.0% |
  Calculate atomic Hamiltonians:   174.476   174.476   0.3% |
  Communicate:                       0.001     0.001   0.0% |
  Poisson:                           1.006     1.006   0.0% |
  XC 3D grid:                        2.843     2.843   0.0% |
 Orthonormalize:                   397.324     0.044   0.0% |
  calc_s_matrix:                    29.415    29.415   0.0% |
  inverse-cholesky:                  0.846     0.846   0.0% |
  projections:                     312.684   312.684   0.5% |
  rotate_psi_s:                     54.335    54.335   0.1% |
Set symmetry:                        0.002     0.002   0.0% |
Other:                           25441.230 25441.230  41.3% |----------------|
-----------------------------------------------------------
Total:                                     61584.025 100.0%

Memory usage: 3.63 GiB
Date: Sat May  6 06:34:10 2023
