
  ___ ___ ___ _ _ _  
 |   |   |_  | | | | 
 | | | | | . | | | | 
 |__ |  _|___|_____|  22.8.0
 |___|_|             

User:   austin@Austins-MacBook-Pro-81.local
Date:   Sat May  6 11:21:25 2023
Arch:   arm64
Pid:    56938
CWD:    /Users/austin/Desktop/dft_class/final_project
Python: 3.8.16
gpaw:   /Users/austin/tensorflow_env/env/lib/python3.8/site-packages/gpaw
_gpaw:  /Users/austin/tensorflow_env/env/lib/python3.8/site-packages/
        _gpaw.cpython-38-darwin.so
ase:    /Users/austin/tensorflow_env/env/lib/python3.8/site-packages/ase (version 3.22.1)
numpy:  /Users/austin/tensorflow_env/env/lib/python3.8/site-packages/numpy (version 1.23.2)
scipy:  /Users/austin/tensorflow_env/env/lib/python3.8/site-packages/scipy (version 1.9.1)
libxc:  6.1.0
units:  Angstrom and eV
cores: 1
OpenMP: False
OMP_NUM_THREADS: 1

Input parameters:
  charge: -1
  h: 0.2
  occupations: {fixmagmom: True,
                name: fermi-dirac,
                width: 0.0}
  setups: {0: fch1s}
  spinpol: True
  xc: PBE

System changes: positions, numbers, cell, pbc, initial_charges, initial_magmoms 

Initialize ...

species:
  Pd:  # (1.0 core hole)
    name: Palladium
    id: fef1e2ce894669eaa6d57de5c0ea2532
    Z: 46.0
    valence: 16
    core: 29.0
    charge: 1.0
    file: ./Pd.fch1s.PBE
    compensation charges: {type: gauss,
                           rc: 0.38,
                           lmax: 2}
    cutoffs: {filter: 2.38,
              core: 2.18}
    valence states:
      #              energy  rcut
      - 5s(0.00)   -11.107   1.228
      - 4p(6.00)   -66.596   1.360
      - 5p(0.00)    -6.271   1.360
      - 4d(10.00)   -15.673   1.228
      -  s          16.104   1.228
      -  d          11.538   1.228
  
    # Using partial waves for Pd as LCAO basis

  Pd:
    name: Palladium
    id: c3f348c122b85aed3f99c4295cac773c
    Z: 46.0
    valence: 16
    core: 30
    charge: 0.0
    file: /Users/austin/gpaw-setups-0.9.20000/Pd.PBE.gz
    compensation charges: {type: gauss,
                           rc: 0.38,
                           lmax: 2}
    cutoffs: {filter: 2.38,
              core: 2.28}
    valence states:
      #              energy  rcut
      - 5s(0.00)    -3.315   1.228
      - 4p(6.00)   -51.209   1.360
      - 5p(0.00)    -0.314   1.360
      - 4d(10.00)    -4.047   1.228
      -  s          23.896   1.228
      -  d          23.165   1.228
  
    # Using partial waves for Pd as LCAO basis

  Se:
    name: Selenium
    id: 2336a0774a38175ff9db42ee3890f88a
    Z: 34.0
    valence: 6
    core: 28
    charge: 0.0
    file: /Users/austin/gpaw-setups-0.9.20000/Se.PBE.gz
    compensation charges: {type: gauss,
                           rc: 0.27,
                           lmax: 2}
    cutoffs: {filter: 1.77,
              core: 2.67}
    valence states:
      #              energy  rcut
      - 4s(2.00)   -17.277   0.847
      - 4p(4.00)    -6.512   1.005
      -  s           9.935   0.847
      -  p          20.699   1.005
      -  d           0.000   0.847
  
    # Using partial waves for Se as LCAO basis

Reference energy: -1053316.257938  # eV

Spin-polarized calculation.
Magnetic moment: 1.000000

Convergence criteria:
 Maximum [total energy] change in last 3 cyles: 0.0005 eV / electron
 Maximum integral of absolute [dens]ity change: 0.0001 electrons / valence electron
 Maximum integral of absolute [eigenst]ate change: 4e-08 eV^2 / valence electron
 Maximum number of scf [iter]ations: 333
 (Square brackets indicate name in SCF output, whereas a 'c' in
 the SCF output indicates the quantity has converged.)

Symmetries present (total): 1

  ( 1  0  0)
  ( 0  1  0)
  ( 0  0  1)

1 k-point (Gamma)
1 k-point in the irreducible part of the Brillouin zone
       k-points in crystal coordinates                weights
   0:     0.00000000    0.00000000    0.00000000          1/1

Wave functions: Uniform real-space grid
  Kinetic energy operator: 6*3+1=19 point O(h^6) finite-difference Laplacian
  ScaLapack parameters: grid=1x1, blocksize=None
  Wavefunction extrapolation:
    Improved wavefunction reuse through dual PAW basis 

Occupation numbers: Fixed magnetic moment: 1.000
# Zero width 

Eigensolver
   Davidson(niter=2) 

Densities:
  Coarse grid: 28*28*92 grid
  Fine grid: 56*56*184 grid
  Total Charge: 0.000000 

Density mixing:
  Method: difference
  Backend: pulay
  Linear mixing parameter: 0.05
  old densities: 5
  Damping of long wavelength oscillations: 50 

Hamiltonian:
  XC and Coulomb potentials evaluated on a 56*56*184 grid
  Using the PBE Exchange-Correlation functional
  Interpolation: tri-quintic (5. degree polynomial)
  Poisson solver: FastPoissonSolver using
    Stencil: 6*3+1=19 point O(h^6) finite-difference Laplacian
    FFT axes: [0, 1, 2]
    FST axes: []
 

XC parameters: PBE with 2 nearest neighbor stencil

Memory estimate:
  Process memory now: 1681.95 MiB
  Calculator: 212.00 MiB
    Density: 65.41 MiB
      Arrays: 19.26 MiB
      Localized functions: 38.44 MiB
      Mixer: 7.70 MiB
    Hamiltonian: 17.14 MiB
      Arrays: 14.31 MiB
      XC: 0.00 MiB
      Poisson: 0.00 MiB
      vbar: 2.84 MiB
    Wavefunctions: 129.45 MiB
      Arrays psit_nG: 80.34 MiB
      Eigensolver: 43.33 MiB
      Projections: 0.20 MiB
      Projectors: 5.58 MiB

Total number of cores used: 1

Number of atoms: 12
Number of atomic orbitals: 80
Number of bands in calculation: 73
Number of valence electrons: 113
Bands to converge: occupied

... initialized

Initializing position-dependent things.

Density initialized from atomic densities
Creating initial wave functions:
  73 bands from LCAO basis set

     .-------------.  
    /|             |  
   / |             |  
  /  |             |  
 *   |             |  
 |   |             |  
 |   |             |  
 |   |    Se       |  
 |   |             |  
 |  Se             |  
 |   |             |  
 |   |           Se|  
 |   |             |  
 | Pd|   SeSe      |  
 |   |             |  
 | Se|  Pd         |  
 |   |             |  
 |   |          Se |  
 |   |    Pd       |  
 |   |    Se       |  
 Pd  |             |  
 |   |             |  
 |   |             |  
 |   .-------------.  
 |  /             /   
 | /             /    
 |/             /     
 *-------------*      

Positions:
   0 Pd     2.897209    0.000000    9.661220    ( 0.0000,  0.0000,  1.0000)
   1 Pd     0.000000    2.972711    9.661220    ( 0.0000,  0.0000,  0.0000)
   2 Pd     2.897209    2.972711    5.368690    ( 0.0000,  0.0000,  0.0000)
   3 Pd     0.000000    0.000000    5.368690    ( 0.0000,  0.0000,  0.0000)
   4 Se     3.542128    0.709622    6.106069    ( 0.0000,  0.0000,  0.0000)
   5 Se     0.644919    2.263089   13.216371    ( 0.0000,  0.0000,  0.0000)
   6 Se     2.252290    3.682333    8.923841    ( 0.0000,  0.0000,  0.0000)
   7 Se     5.149499    5.235800   10.398600    ( 0.0000,  0.0000,  0.0000)
   8 Se     0.644919    0.709622    8.923841    ( 0.0000,  0.0000,  0.0000)
   9 Se     3.542128    2.263089   10.398600    ( 0.0000,  0.0000,  0.0000)
  10 Se     5.149499    3.682333    6.106069    ( 0.0000,  0.0000,  0.0000)
  11 Se     2.252290    5.235800   13.216371    ( 0.0000,  0.0000,  0.0000)

Unit cell:
           periodic     x           y           z      points  spacing
  1. axis:    yes    5.794418    0.000000    0.000000    28     0.2069
  2. axis:    yes    0.000000    5.945422    0.000000    28     0.2123
  3. axis:    yes    0.000000    0.000000   18.585061    92     0.2020

  Lengths:   5.794418   5.945422  18.585061
  Angles:   90.000000  90.000000  90.000000

Effective grid spacing dv^(1/3) = 0.2071

     iter     time        total  log10-change:  magmom
                         energy  eigst   dens
iter:   1 11:21:30  -136.971510                  +1.0084
iter:   2 11:21:32  -136.478607  +0.56  -0.72    +1.0025
iter:   3 11:21:35  -100.509946  -0.38  -0.75    +1.0017
iter:   4 11:21:37   -96.198530  -0.69  -1.05    +1.0007
iter:   5 11:21:40   -94.860886  -1.19  -1.20    +1.0003
iter:   6 11:21:42   -94.827247  -1.52  -1.26    +1.0001
iter:   7 11:21:45   -94.263009  -1.66  -1.27    +1.0001
iter:   8 11:21:47   -93.591472  -1.49  -1.27    +1.0000
iter:   9 11:21:49   -93.359813  -1.10  -1.38    +1.0000
iter:  10 11:21:52   -93.222507  -1.81  -1.61    +1.0000
iter:  11 11:21:54   -93.184033  -1.59  -1.65    +1.0000
iter:  12 11:21:57   -93.093238  -1.98  -1.88    +1.0000
iter:  13 11:21:59   -93.082980  -1.87  -1.93    +1.0000
iter:  14 11:22:01   -93.071785c -2.43  -2.03    +1.0000
iter:  15 11:22:04   -93.110447c -2.26  -1.99    +1.0000
iter:  16 11:22:06   -93.137254  -2.48  -2.14    +1.0000
iter:  17 11:22:09   -93.112492c -2.62  -2.23    +1.0000
iter:  18 11:22:11   -93.127283c -2.89  -2.25    +1.0000
iter:  19 11:22:14   -93.116981c -3.05  -2.27    +1.0000
iter:  20 11:22:16   -93.131604c -3.26  -2.19    +1.0000
iter:  21 11:22:19   -93.112163c -3.46  -2.17    +1.0000
iter:  22 11:22:22   -93.111392c -3.46  -2.46    +1.0000
iter:  23 11:22:24   -93.116975c -3.47  -2.48    +1.0000
iter:  24 11:22:26   -93.109158c -3.90  -2.48    +1.0000
iter:  25 11:22:29   -93.097475c -3.54  -2.59    +1.0000
iter:  26 11:22:31   -93.123213c -3.13  -2.53    +1.0000
iter:  27 11:22:34   -93.096093c -2.72  -2.45    +1.0000
iter:  28 11:22:36   -93.087892c -2.54  -2.33    +1.0000
iter:  29 11:22:39   -93.112415c -2.79  -2.19    +1.0000
iter:  30 11:22:41   -93.092268c -2.53  -2.96    +1.0000
iter:  31 11:22:44   -93.068001c -2.39  -2.27    +1.0000
iter:  32 11:22:46   -93.102299c -2.18  -2.09    +1.0000
iter:  33 11:22:48   -93.147974  -1.94  -2.66    +1.0000
iter:  34 11:22:51   -93.095229c -2.50  -2.21    +1.0000
iter:  35 11:22:53   -93.085330  -2.30  -2.36    +1.0000
iter:  36 11:22:56   -93.115965c -2.65  -2.19    +1.0000
iter:  37 11:22:58   -92.992566  -1.77  -2.76    +1.0000
iter:  38 11:23:01   -93.169796  -1.35  -2.09    +1.0000
iter:  39 11:23:03   -93.249575  -1.56  -2.07    +1.0000
iter:  40 11:23:06   -93.231046  -2.86  -1.87    +1.0000
iter:  41 11:23:08   -93.295456  -2.74  -1.93    +1.0000
iter:  42 11:23:11   -93.406757  -2.64  -1.83    +1.0000
iter:  43 11:23:13   -93.442887  -2.65  -1.74    +1.0000
iter:  44 11:23:16   -93.487111  -2.89  -1.72    +1.0000
iter:  45 11:23:18   -93.451894c -3.15  -1.70    +1.0000
iter:  46 11:23:21   -93.109388  -2.56  -1.71    +1.0000
iter:  47 11:23:23   -93.210687  -2.16  -1.95    +1.0000
iter:  48 11:23:26   -93.147467  -2.47  -1.86    +1.0000
iter:  49 11:23:28   -93.227612  -2.30  -1.91    +1.0000
iter:  50 11:23:30   -93.039603  -2.18  -1.80    +1.0000
iter:  51 11:23:33   -92.985650  -2.36  -1.94    +1.0000
iter:  52 11:23:35   -93.091093  -2.39  -2.05    +1.0000
iter:  53 11:23:38   -93.027348  -2.22  -1.91    +1.0000
iter:  54 11:23:40   -92.922543  -2.60  -1.96    +1.0000
iter:  55 11:23:42   -92.958881  -2.89  -2.10    +1.0000
iter:  56 11:23:45   -93.056307  -2.87  -2.19    +1.0000
iter:  57 11:23:47   -92.915536  -2.84  -1.96    +1.0000
iter:  58 11:23:50   -92.777824  -2.44  -2.14    +1.0000
iter:  59 11:23:52   -93.016839  -2.21  -2.17    +1.0000
iter:  60 11:23:55   -93.122860  -2.19  -2.34    +1.0000
iter:  61 11:23:57   -93.250020  -2.40  -2.10    +1.0000
iter:  62 11:24:00   -93.386731  -2.10  -1.93    +1.0000
iter:  63 11:24:02   -93.451007  -2.51  -1.75    +1.0000
iter:  64 11:24:05   -93.384788  -2.68  -1.74    +1.0000
iter:  65 11:24:08   -93.425082  -2.86  -1.71    +1.0000
iter:  66 11:24:10   -93.170074  -2.44  -1.69    +1.0000
iter:  67 11:24:13   -93.057277  -2.52  -1.75    +1.0000
iter:  68 11:24:15   -93.042985  -2.76  -1.80    +1.0000
iter:  69 11:24:18   -92.986750  -3.07  -1.89    +1.0000
iter:  70 11:24:20   -92.984338  -3.20  -2.21    +1.0000
iter:  71 11:24:23   -92.969824c -3.41  -2.12    +1.0000
iter:  72 11:24:25   -92.963072c -3.45  -2.29    +1.0000
iter:  73 11:24:28   -93.009817c -2.94  -2.35    +1.0000
iter:  74 11:24:30   -92.957354c -2.60  -2.35    +1.0000
iter:  75 11:24:33   -92.988267c -2.95  -2.34    +1.0000
iter:  76 11:24:35   -92.942981c -3.12  -2.72    +1.0000
iter:  77 11:24:38   -92.965021c -3.16  -2.44    +1.0000
iter:  78 11:24:40   -92.941731c -3.35  -2.59    +1.0000
iter:  79 11:24:43   -92.946600c -3.36  -2.46    +1.0000
iter:  80 11:24:45   -92.963457c -3.02  -2.43    +1.0000
iter:  81 11:24:47   -92.962586c -3.62  -2.31    +1.0000
iter:  82 11:24:50   -92.966832c -3.51  -2.34    +1.0000
iter:  83 11:24:52   -92.997334c -3.59  -2.30    +1.0000
iter:  84 11:24:55   -93.004772c -3.47  -2.07    +1.0000
iter:  85 11:24:57   -92.979837c -2.82  -2.09    +1.0000
iter:  86 11:25:00   -92.984628c -3.26  -2.37    +1.0000
iter:  87 11:25:02   -92.992746c -3.16  -2.37    +1.0000
iter:  88 11:25:05   -93.001448c -3.30  -2.34    +1.0000
iter:  89 11:25:07   -93.006626c -3.20  -2.35    +1.0000
iter:  90 11:25:09   -93.006416c -3.30  -2.41    +1.0000
iter:  91 11:25:12   -93.007680c -3.59  -2.41    +1.0000
iter:  92 11:25:14   -93.005520c -4.02  -2.38    +1.0000
iter:  93 11:25:17   -93.004100c -3.66  -2.49    +1.0000
iter:  94 11:25:19   -93.003406c -3.95  -2.57    +1.0000
iter:  95 11:25:22   -93.004065c -3.66  -2.65    +1.0000
iter:  96 11:25:24   -93.003312c -3.87  -2.73    +1.0000
iter:  97 11:25:26   -93.003881c -4.14  -2.92    +1.0000
iter:  98 11:25:29   -93.003907c -4.48  -3.04    +1.0000
iter:  99 11:25:31   -93.004604c -4.70  -3.10    +1.0000
iter: 100 11:25:34   -93.006269c -4.23  -3.09    +1.0000
iter: 101 11:25:36   -93.003982c -4.05  -2.93    +1.0000
iter: 102 11:25:39   -93.003751c -4.22  -3.19    +1.0000
iter: 103 11:25:41   -93.004980c -4.61  -3.25    +1.0000
iter: 104 11:25:44   -93.003895c -4.48  -3.07    +1.0000
iter: 105 11:25:46   -93.004468c -4.52  -3.21    +1.0000
iter: 106 11:25:49   -93.005489c -4.37  -3.28    +1.0000
iter: 107 11:25:51   -93.004861c -4.58  -3.11    +1.0000
iter: 108 11:25:54   -93.005754c -4.96  -3.19    +1.0000
iter: 109 11:25:56   -93.004929c -4.75  -2.94    +1.0000
iter: 110 11:25:58   -93.005996c -4.57  -3.21    +1.0000
iter: 111 11:26:01   -93.006415c -4.32  -3.02    +1.0000
iter: 112 11:26:03   -93.006298c -4.94  -3.04    +1.0000
iter: 113 11:26:06   -93.008534c -4.67  -3.05    +1.0000
iter: 114 11:26:08   -93.005508c -4.03  -2.78    +1.0000
iter: 115 11:26:10   -93.005790c -4.06  -2.97    +1.0000
iter: 116 11:26:13   -93.006572c -4.41  -3.14    +1.0000
iter: 117 11:26:15   -93.005570c -4.46  -2.94    +1.0000
iter: 118 11:26:18   -93.006630c -4.24  -3.01    +1.0000
iter: 119 11:26:20   -93.003609c -3.03  -2.86    +1.0000
iter: 120 11:26:22   -93.007724c -2.71  -2.54    +1.0000
iter: 121 11:26:25   -93.007625c -3.83  -2.79    +1.0000
iter: 122 11:26:27   -93.008184c -3.59  -2.77    +1.0000
iter: 123 11:26:30   -93.007933c -4.55  -2.79    +1.0000
iter: 124 11:26:32   -93.009140c -4.62  -2.83    +1.0000
iter: 125 11:26:35   -93.007517c -4.60  -2.73    +1.0000
iter: 126 11:26:38   -93.006486c -4.06  -2.81    +1.0000
iter: 127 11:26:40   -93.006860c -4.65  -2.98    +1.0000
iter: 128 11:26:42   -93.006785c -4.62  -2.92    +1.0000
iter: 129 11:26:45   -93.007018c -4.51  -2.92    +1.0000
iter: 130 11:26:47   -93.007641c -4.73  -2.87    +1.0000
iter: 131 11:26:50   -93.007790c -4.16  -2.78    +1.0000
iter: 132 11:26:52   -93.007334c -4.07  -2.71    +1.0000
iter: 133 11:26:54   -93.011161c -4.20  -2.71    +1.0000
iter: 134 11:26:57   -93.007208c -4.25  -2.41    +1.0000
iter: 135 11:26:59   -93.007573c -4.39  -2.79    +1.0000
iter: 136 11:27:02   -93.012777c -4.04  -2.74    +1.0000
iter: 137 11:27:04   -93.007709c -3.59  -2.37    +1.0000
iter: 138 11:27:07   -93.008657c -3.94  -2.84    +1.0000
iter: 139 11:27:09   -93.007802c -4.15  -2.71    +1.0000
iter: 140 11:27:12   -93.007673c -4.18  -2.80    +1.0000
iter: 141 11:27:14   -93.015726c -3.56  -2.81    +1.0000
iter: 142 11:27:17   -93.014117c -3.53  -2.30    +1.0000
iter: 143 11:27:19   -93.054823c -3.02  -2.32    +1.0000
iter: 144 11:27:22   -93.007046c -2.53  -1.97    +1.0000
iter: 145 11:27:24   -93.006971c -3.56  -2.79    +1.0000
iter: 146 11:27:26   -93.008246c -3.67  -3.03    +1.0000
iter: 147 11:27:29   -93.006703c -3.86  -2.78    +1.0000
iter: 148 11:27:31   -93.006770c -3.67  -3.08    +1.0000
iter: 149 11:27:34   -93.006708c -4.40  -3.09    +1.0000
iter: 150 11:27:36   -93.006858c -4.94  -3.03    +1.0000
iter: 151 11:27:39   -93.006613c -5.52  -2.92    +1.0000
iter: 152 11:27:42   -93.007255c -4.97  -3.09    +1.0000
iter: 153 11:27:44   -93.006448c -4.52  -2.98    +1.0000
iter: 154 11:27:47   -93.006300c -4.41  -3.11    +1.0000
iter: 155 11:27:49   -93.006253c -5.25  -3.24    +1.0000
iter: 156 11:27:52   -93.006311c -5.37  -3.40    +1.0000
iter: 157 11:27:54   -93.006356c -5.37  -3.45    +1.0000
iter: 158 11:27:57   -93.006250c -5.54  -3.13    +1.0000
iter: 159 11:27:59   -93.006267c -5.74  -3.53    +1.0000
iter: 160 11:28:01   -93.006278c -5.39  -3.47    +1.0000
iter: 161 11:28:04   -93.006256c -5.63  -3.40    +1.0000
iter: 162 11:28:06   -93.006263c -6.61  -3.47    +1.0000
iter: 163 11:28:09   -93.006349c -5.70  -3.47    +1.0000
iter: 164 11:28:11   -93.006359c -5.59  -3.43    +1.0000
iter: 165 11:28:13   -93.006844c -4.76  -3.36    +1.0000
iter: 166 11:28:16   -93.006494c -4.40  -3.13    +1.0000
iter: 167 11:28:18   -93.006322c -4.95  -2.97    +1.0000
iter: 168 11:28:21   -93.006347c -5.71  -3.59    +1.0000
iter: 169 11:28:23   -93.006426c -6.14  -3.27    +1.0000
iter: 170 11:28:26   -93.006454c -6.37  -3.19    +1.0000
iter: 171 11:28:28   -93.006379c -5.98  -3.12    +1.0000
iter: 172 11:28:31   -93.006342c -5.70  -3.43    +1.0000
iter: 173 11:28:33   -93.006343c -5.70  -3.65    +1.0000
iter: 174 11:28:35   -93.006397c -5.68  -3.80    +1.0000
iter: 175 11:28:38   -93.006402c -5.87  -3.91    +1.0000
iter: 176 11:28:40   -93.006427c -5.86  -3.41    +1.0000
iter: 177 11:28:43   -93.006408c -6.43  -3.32    +1.0000
iter: 178 11:28:45   -93.006404c -7.01  -3.38    +1.0000
iter: 179 11:28:48   -93.006382c -6.85  -3.38    +1.0000
iter: 180 11:28:50   -93.006351c -5.76  -3.48    +1.0000
iter: 181 11:28:53   -93.006371c -5.59  -3.79    +1.0000
iter: 182 11:28:55   -93.006507c -5.37  -3.80    +1.0000
iter: 183 11:28:57   -93.006496c -4.41  -3.40    +1.0000
iter: 184 11:29:00   -93.006373c -4.75  -2.93    +1.0000
iter: 185 11:29:02   -93.006347c -5.66  -3.21    +1.0000
iter: 186 11:29:05   -93.006452c -6.12  -3.26    +1.0000
iter: 187 11:29:07   -93.006345c -6.33  -3.13    +1.0000
iter: 188 11:29:09   -93.006565c -6.03  -3.28    +1.0000
iter: 189 11:29:12   -93.006243c -5.29  -3.04    +1.0000
iter: 190 11:29:14   -93.006243c -6.26  -3.72    +1.0000
iter: 191 11:29:17   -93.006266c -5.92  -3.91    +1.0000
iter: 192 11:29:20   -93.006702c -4.90  -3.86    +1.0000
iter: 193 11:29:22   -93.006067c -4.41  -3.07    +1.0000
iter: 194 11:29:24   -93.006062c -4.47  -3.52    +1.0000
iter: 195 11:29:27   -93.006108c -4.89  -3.24    +1.0000
iter: 196 11:29:29   -93.006130c -5.88  -3.21    +1.0000
iter: 197 11:29:32   -93.006187c -5.87  -3.27    +1.0000
iter: 198 11:29:34   -93.006149c -5.87  -3.49    +1.0000
iter: 199 11:29:36   -93.006197c -5.92  -3.27    +1.0000
iter: 200 11:29:39   -93.006363c -5.41  -3.25    +1.0000
iter: 201 11:29:41   -93.006665c -5.03  -3.06    +1.0000
iter: 202 11:29:44   -93.006683c -5.18  -2.89    +1.0000
iter: 203 11:29:46   -93.007550c -4.21  -2.88    +1.0000
iter: 204 11:29:48   -93.007071c -3.59  -2.71    +1.0000
iter: 205 11:29:51   -93.006596c -3.58  -2.71    +1.0000
iter: 206 11:29:53   -93.006552c -3.48  -2.92    +1.0000
iter: 207 11:29:56   -93.007163c -3.10  -3.05    +1.0000
iter: 208 11:29:58   -93.006394c -4.02  -2.81    +1.0000
iter: 209 11:30:00   -93.006408c -5.09  -3.16    +1.0000
iter: 210 11:30:03   -93.006335c -5.13  -3.15    +1.0000
iter: 211 11:30:05   -93.006112c -5.42  -3.15    +1.0000
iter: 212 11:30:08   -93.006214c -5.96  -3.28    +1.0000
iter: 213 11:30:10   -93.007356c -5.09  -3.24    +1.0000
iter: 214 11:30:13   -93.006060c -4.61  -2.82    +1.0000
iter: 215 11:30:15   -93.005940c -4.41  -3.26    +1.0000
iter: 216 11:30:17   -93.005956c -5.37  -3.42    +1.0000
iter: 217 11:30:20   -93.006322c -5.36  -3.36    +1.0000
iter: 218 11:30:22   -93.006223c -5.42  -3.00    +1.0000
iter: 219 11:30:25   -93.006141c -5.29  -3.10    +1.0000
iter: 220 11:30:27   -93.006146c -4.86  -3.35    +1.0000
iter: 221 11:30:29   -93.006183c -4.98  -3.55    +1.0000
iter: 222 11:30:32   -93.006398c -5.32  -3.43    +1.0000
iter: 223 11:30:34   -93.006111c -4.98  -3.38    +1.0000
iter: 224 11:30:37   -93.006136c -5.80  -3.59    +1.0000
iter: 225 11:30:39   -93.006151c -5.95  -3.47    +1.0000
iter: 226 11:30:42   -93.006240c -5.37  -3.48    +1.0000
iter: 227 11:30:44   -93.006126c -5.14  -3.34    +1.0000
iter: 228 11:30:47   -93.006179c -5.41  -3.73    +1.0000
iter: 229 11:30:49   -93.006105c -4.34  -3.62    +1.0000
iter: 230 11:30:52   -93.006169c -4.16  -3.19    +1.0000
iter: 231 11:30:55   -93.006034c -4.00  -3.61    +1.0000
iter: 232 11:30:57   -93.005877c -4.35  -3.02    +1.0000
iter: 233 11:31:00   -93.005899c -4.89  -3.30    +1.0000
iter: 234 11:31:02   -93.005911c -5.51  -3.34    +1.0000
iter: 235 11:31:05   -93.006021c -5.17  -3.36    +1.0000
iter: 236 11:31:07   -93.005624c -5.09  -3.11    +1.0000
iter: 237 11:31:10   -93.005454c -4.84  -3.35    +1.0000
iter: 238 11:31:12   -93.005428c -5.63  -3.65    +1.0000
iter: 239 11:31:15   -93.005742c -5.34  -3.82    +1.0000
iter: 240 11:31:17   -93.004804c -4.37  -3.55    +1.0000
iter: 241 11:31:20   -93.005094c -4.75  -3.31    +1.0000
iter: 242 11:31:22   -93.005451c -4.75  -3.47    +1.0000
iter: 243 11:31:25   -93.005964c -4.32  -3.47    +1.0000
iter: 244 11:31:27   -93.006055c -5.09  -3.13    +1.0000
iter: 245 11:31:29   -93.006101c -4.82  -3.03    +1.0000
iter: 246 11:31:32   -93.006351c -4.88  -3.23    +1.0000
iter: 247 11:31:34   -93.006540c -5.09  -3.07    +1.0000
iter: 248 11:31:37   -93.006417c -5.58  -3.00    +1.0000
iter: 249 11:31:39   -93.006649c -5.45  -3.17    +1.0000
iter: 250 11:31:42   -93.005698c -4.45  -3.10    +1.0000
iter: 251 11:31:45   -93.005720c -3.95  -3.66    +1.0000
iter: 252 11:31:47   -93.005499c -4.50  -3.08    +1.0000
iter: 253 11:31:50   -93.005496c -5.64  -3.56    +1.0000
iter: 254 11:31:52   -93.005470c -5.54  -3.52    +1.0000
iter: 255 11:31:55   -93.005425c -5.50  -3.65    +1.0000
iter: 256 11:31:58   -93.005589c -4.93  -3.65    +1.0000
iter: 257 11:32:00   -93.005593c -5.54  -3.43    +1.0000
iter: 258 11:32:03   -93.005814c -5.25  -3.56    +1.0000
iter: 259 11:32:33   -93.005725c -5.44  -3.12    +1.0000
iter: 260 11:32:36   -93.005790c -5.57  -3.36    +1.0000
iter: 261 11:32:38   -93.005945c -4.81  -3.37    +1.0000
iter: 262 11:32:41   -93.006417c -4.69  -3.40    +1.0000
iter: 263 11:32:44   -93.006036c -5.22  -3.13    +1.0000
iter: 264 11:32:46   -93.006228c -5.51  -3.24    +1.0000
iter: 265 11:32:49   -93.005973c -5.00  -3.10    +1.0000
iter: 266 11:32:51   -93.006097c -4.47  -3.46    +1.0000
iter: 267 11:32:53   -93.006037c -5.58  -3.10    +1.0000
iter: 268 11:32:56   -93.006141c -5.47  -3.21    +1.0000
iter: 269 11:32:58   -93.006066c -5.75  -3.21    +1.0000
iter: 270 11:33:01   -93.005989c -5.36  -3.17    +1.0000
iter: 271 11:34:55   -93.006053c -5.44  -3.23    +1.0000
iter: 272 11:34:57   -93.006012c -5.59  -3.09    +1.0000
iter: 273 11:35:00   -93.005863c -5.60  -3.22    +1.0000
iter: 274 11:35:03   -93.005874c -5.72  -3.61    +1.0000
iter: 275 11:35:05   -93.005800c -5.71  -3.77    +1.0000
iter: 276 11:35:07   -93.005789c -5.66  -3.77    +1.0000
iter: 277 11:35:39   -93.005782c -5.88  -3.48    +1.0000
iter: 278 11:35:41   -93.005793c -6.37  -3.50    +1.0000
iter: 279 11:35:43   -93.005788c -6.22  -3.69    +1.0000
iter: 280 11:35:46   -93.005833c -6.11  -3.43    +1.0000
iter: 281 11:35:48   -93.005792c -6.01  -3.40    +1.0000
iter: 282 11:35:51   -93.005790c -5.82  -3.43    +1.0000
iter: 283 11:35:53   -93.005791c -6.50  -3.66    +1.0000
iter: 284 11:35:55   -93.005816c -6.13  -3.58    +1.0000
iter: 285 11:35:58   -93.005812c -5.61  -3.43    +1.0000
iter: 286 11:36:00   -93.005791c -5.89  -3.34    +1.0000
iter: 287 11:36:02   -93.005675c -5.63  -3.36    +1.0000
iter: 288 11:36:05   -93.005670c -5.58  -3.65    +1.0000
iter: 289 11:36:07   -93.005689c -5.91  -3.82    +1.0000
iter: 290 11:36:09   -93.005714c -5.51  -3.75    +1.0000
iter: 291 11:36:12   -93.005641c -5.23  -3.49    +1.0000
iter: 292 11:36:14   -93.005657c -5.00  -3.66    +1.0000
iter: 293 11:36:17   -93.005660c -5.37  -3.32    +1.0000
iter: 294 11:36:19   -93.005659c -6.18  -3.26    +1.0000
iter: 295 11:36:21   -93.005688c -6.41  -3.25    +1.0000
iter: 296 11:36:24   -93.005635c -6.41  -3.17    +1.0000
iter: 297 11:36:26   -93.005636c -6.78  -3.32    +1.0000
iter: 298 11:36:28   -93.005622c -6.68  -3.33    +1.0000
iter: 299 11:45:10   -93.005589c -6.63  -3.37    +1.0000
iter: 300 11:45:12   -93.005598c -6.52  -3.49    +1.0000
iter: 301 11:45:14   -93.005579c -5.92  -3.42    +1.0000
iter: 302 11:45:17   -93.005563c -5.78  -3.60    +1.0000
iter: 303 11:45:19   -93.005551c -6.11  -3.71    +1.0000
iter: 304 11:45:22   -93.005725c -5.76  -3.76    +1.0000
iter: 305 11:55:54   -93.005547c -5.33  -3.42    +1.0000
iter: 306 11:55:56   -93.005538c -6.01  -3.27    +1.0000
iter: 307 11:55:59   -93.005520c -6.24  -3.40    +1.0000
iter: 308 11:56:02   -93.005538c -7.08  -3.52    +1.0000
iter: 309 11:56:04   -93.005552c -6.74  -3.42    +1.0000
iter: 310 11:56:07   -93.005515c -6.15  -3.39    +1.0000
iter: 311 11:56:09   -93.005508c -5.84  -3.65    +1.0000
iter: 312 11:56:12   -93.005580c -5.33  -3.78    +1.0000
iter: 313 11:56:15   -93.005482c -4.96  -3.53    +1.0000
iter: 314 11:56:17   -93.005448c -4.80  -3.46    +1.0000
iter: 315 11:56:20   -93.005438c -5.30  -3.25    +1.0000
iter: 316 11:56:22   -93.005425c -5.85  -3.16    +1.0000
iter: 317 11:56:25   -93.005434c -6.76  -3.14    +1.0000
iter: 318 11:56:27   -93.005521c -6.72  -3.16    +1.0000
iter: 319 11:56:30   -93.005377c -6.10  -3.11    +1.0000
iter: 320 11:56:32   -93.005419c -6.00  -3.21    +1.0000
iter: 321 11:56:35   -93.005403c -6.25  -3.18    +1.0000
iter: 322 11:56:37   -93.005241c -5.76  -3.24    +1.0000
iter: 323 11:56:40   -93.005299c -5.66  -3.63    +1.0000
iter: 324 11:56:43   -93.005311c -5.70  -3.56    +1.0000
iter: 325 11:56:45   -93.005292c -5.79  -3.19    +1.0000
iter: 326 11:56:47   -93.005272c -5.73  -3.33    +1.0000
iter: 327 11:56:50   -93.005279c -5.89  -3.53    +1.0000
iter: 328 11:56:53   -93.005236c -6.42  -4.14c   +1.0000
iter: 329 11:56:55   -93.005280c -5.81  -3.79    +1.0000
iter: 330 11:56:57   -93.005249c -5.78  -3.25    +1.0000
iter: 331 11:57:00   -93.005295c -6.14  -3.42    +1.0000
iter: 332 11:57:03   -93.005274c -6.23  -3.26    +1.0000
iter: 333 11:57:05   -93.005325c -6.08  -3.31    +1.0000

Did not converge!

Here are some tips:

1) Make sure the geometry and spin-state is physically sound.
2) Use less aggressive density mixing.
3) Solve the eigenvalue problem more accurately at each scf-step.
4) Use a smoother distribution function for the occupation numbers.
5) Try adding more empty states.
6) Use enough k-points.
7) Don't let your structure optimization algorithm take too large steps.
8) Solve the Poisson equation more accurately.
9) Better initial guess for the wave functions.

See details here:

    https://wiki.fysik.dtu.dk/gpaw/documentation/convergence.html


